 vasp.5.4.4.18Apr17-6-g9f103f2a35 (build Nov 15 2018 17:56:05) complex          
  
 executed on             LinuxIFC date 2021.08.12  15:40:58
 running on   36 total cores
 distrk:  each k-point on   36 cores,    1 groups
 distr:  one band on NCORES_PER_BAND=   6 cores,    6 groups


--------------------------------------------------------------------------------------------------------


 INCAR:
 POTCAR:    PAW_PBE Cd 06Sep2000                  
 POTCAR:    PAW_PBE In 08Apr2002                  
 POTCAR:    PAW_PBE S 06Sep2000                   
 POTCAR:    PAW_PBE Cd 06Sep2000                  
   VRHFIN =Cd : s2 d10                                                          
   LEXCH  = PE                                                                  
   EATOM  =  1293.1815 eV,   95.0462 Ry                                         
                                                                                
   TITEL  = PAW_PBE Cd 06Sep2000                                                
   LULTRA =        F    use ultrasoft PP ?                                      
   IUNSCR =        1    unscreen: 0-lin 1-nonlin 2-no                           
   RPACOR =    2.000    partial core radius                                     
   POMASS =  112.411; ZVAL   =   12.000    mass and valenz                      
   RCORE  =    2.300    outmost cutoff radius                                   
   RWIGS  =    2.980; RWIGS  =    1.577    wigner-seitz radius (au A)           
   ENMAX  =  274.336; ENMIN  =  205.752 eV                                      
   RCLOC  =    2.054    cutoff for local pot                                    
   LCOR   =        T    correct aug charges                                     
   LPAW   =        T    paw PP                                                  
   EAUG   =  456.106                                                            
   DEXC   =    0.000                                                            
   RMAX   =    2.358    core radius for proj-oper                               
   RAUG   =    1.300    factor for augmentation sphere                          
   RDEP   =    2.450    radius for radial grids                                 
   RDEPT  =    1.955    core radius for aug-charge                              
                                                                                
   Atomic configuration                                                         
   12 entries                                                                   
     n  l   j            E        occ.                                          
     1  0  0.50    -26519.7817   2.0000                                         
     2  0  0.50     -3936.9612   2.0000                                         
     2  1  1.50     -3532.2230   6.0000                                         
     3  0  0.50      -733.7908   2.0000                                         
     3  1  1.50      -601.0792   6.0000                                         
     3  2  2.50      -393.5307  10.0000                                         
     4  0  0.50      -105.8977   2.0000                                         
     4  1  1.50       -66.9488   6.0000                                         
     4  2  2.50       -11.7331  10.0000                                         
     5  0  0.50        -5.6592   2.0000                                         
     5  1  0.50        -1.3606   0.0000                                         
     4  3  2.50        -1.3606   0.0000                                         
   Description                                                                  
     l       E           TYP  RCUT    TYP  RCUT                                 
     2    -11.7331479     23  2.300                                             
     2    -13.0937305     23  2.300                                             
     0     -5.6591502     23  2.300                                             
     0     -1.5561433     23  2.300                                             
     1     -2.7211652     23  2.300                                             
     1      8.3548275     23  2.300                                             
  local pseudopotential read in
  partial core-charges read in
  partial kinetic energy density read in
  atomic valenz-charges read in
  non local Contribution for L=           2  read in
    real space projection operators read in
  non local Contribution for L=           2  read in
    real space projection operators read in
  non local Contribution for L=           0  read in
    real space projection operators read in
  non local Contribution for L=           0  read in
    real space projection operators read in
  non local Contribution for L=           1  read in
    real space projection operators read in
  non local Contribution for L=           1  read in
    real space projection operators read in
    PAW grid and wavefunctions read in
 
   number of l-projection  operators is LMAX  =           6
   number of lm-projection operators is LMMAX =          18
 
 POTCAR:    PAW_PBE In 08Apr2002                  
   VRHFIN =In: s2p1                                                             
   LEXCH  = PE                                                                  
   EATOM  =    53.7908 eV,    3.9535 Ry                                         
                                                                                
   TITEL  = PAW_PBE In 08Apr2002                                                
   LULTRA =        F    use ultrasoft PP ?                                      
   IUNSCR =        1    unscreen: 0-lin 1-nonlin 2-no                           
   RPACOR =    2.400    partial core radius                                     
   POMASS =  114.820; ZVAL   =    3.000    mass and valenz                      
   RCORE  =    3.100    outmost cutoff radius                                   
   RWIGS  =    3.170; RWIGS  =    1.677    wigner-seitz radius (au A)           
   ENMAX  =   95.934; ENMIN  =   71.951 eV                                      
   ICORE  =        3    local potential                                         
   LCOR   =        T    correct aug charges                                     
   LPAW   =        T    paw PP                                                  
   EAUG   =  237.125                                                            
   DEXC   =    0.000                                                            
   RMAX   =    3.168    core radius for proj-oper                               
   RAUG   =    1.300    factor for augmentation sphere                          
   RDEP   =    3.187    radius for radial grids                                 
   RDEPT  =    2.711    core radius for aug-charge                              
                                                                                
   Atomic configuration                                                         
   13 entries                                                                   
     n  l   j            E        occ.                                          
     1  0  0.50    -27747.9169   2.0000                                         
     2  0  0.50     -4154.4438   2.0000                                         
     2  1  1.50     -3728.4305   6.0000                                         
     3  0  0.50      -788.3680   2.0000                                         
     3  1  1.50      -648.9215   6.0000                                         
     3  2  2.50      -432.5893  10.0000                                         
     4  0  0.50      -119.6363   2.0000                                         
     4  1  1.50       -78.1086   6.0000                                         
     4  2  2.50       -18.6227  10.0000                                         
     5  0  0.50        -8.2107   2.0000                                         
     5  1  0.50        -2.5185   1.0000                                         
     5  2  2.50        -1.3606   0.0000                                         
     4  3  2.50        -2.7212   0.0000                                         
   Description                                                                  
     l       E           TYP  RCUT    TYP  RCUT                                 
     0     -8.2107306     23  3.100                                             
     0     -6.1485975     23  3.100                                             
     1     -2.5184867     23  3.100                                             
     1      3.2427302     23  3.100                                             
     2     -1.3605826     23  3.100                                             
     3     -1.3605826     23  3.100                                             
  local pseudopotential read in
  partial core-charges read in
  partial kinetic energy density read in
  atomic valenz-charges read in
  non local Contribution for L=           0  read in
    real space projection operators read in
  non local Contribution for L=           0  read in
    real space projection operators read in
  non local Contribution for L=           1  read in
    real space projection operators read in
  non local Contribution for L=           1  read in
    real space projection operators read in
  non local Contribution for L=           2  read in
    real space projection operators read in
    PAW grid and wavefunctions read in
 
   number of l-projection  operators is LMAX  =           5
   number of lm-projection operators is LMMAX =          13
 
 POTCAR:    PAW_PBE S 06Sep2000                   
   VRHFIN =S : s2p4                                                             
   LEXCH  = PE                                                                  
   EATOM  =   276.8230 eV,   20.3459 Ry                                         
                                                                                
   TITEL  = PAW_PBE S 06Sep2000                                                 
   LULTRA =        F    use ultrasoft PP ?                                      
   IUNSCR =        1    unscreen: 0-lin 1-nonlin 2-no                           
   RPACOR =    1.500    partial core radius                                     
   POMASS =   32.066; ZVAL   =    6.000    mass and valenz                      
   RCORE  =    1.900    outmost cutoff radius                                   
   RWIGS  =    2.200; RWIGS  =    1.164    wigner-seitz radius (au A)           
   ENMAX  =  258.689; ENMIN  =  194.016 eV                                      
   ICORE  =        2    local potential                                         
   LCOR   =        T    correct aug charges                                     
   LPAW   =        T    paw PP                                                  
   EAUG   =  335.092                                                            
   DEXC   =    0.000                                                            
   RMAX   =    1.942    core radius for proj-oper                               
   RAUG   =    1.300    factor for augmentation sphere                          
   RDEP   =    1.954    radius for radial grids                                 
   RDEPT  =    1.744    core radius for aug-charge                              
                                                                                
   Atomic configuration                                                         
    6 entries                                                                   
     n  l   j            E        occ.                                          
     1  0  0.50     -2405.8406   2.0000                                         
     2  0  0.50      -211.7007   2.0000                                         
     2  1  1.50      -156.4958   6.0000                                         
     3  0  0.50       -17.2562   2.0000                                         
     3  1  0.50        -7.0085   4.0000                                         
     3  2  1.50        -6.8029   0.0000                                         
   Description                                                                  
     l       E           TYP  RCUT    TYP  RCUT                                 
     0    -17.2561641     23  1.900                                             
     0    -15.8743224     23  1.900                                             
     1     -7.0085400     23  1.900                                             
     1     -2.7779785     23  1.900                                             
     2     -6.8029130     23  1.900                                             
  local pseudopotential read in
  partial core-charges read in
  partial kinetic energy density read in
  atomic valenz-charges read in
  non local Contribution for L=           0  read in
    real space projection operators read in
  non local Contribution for L=           0  read in
    real space projection operators read in
  non local Contribution for L=           1  read in
    real space projection operators read in
  non local Contribution for L=           1  read in
    real space projection operators read in
    PAW grid and wavefunctions read in
 
   number of l-projection  operators is LMAX  =           4
   number of lm-projection operators is LMMAX =           8
 

 ----------------------------------------------------------------------------- 
|                                                                             |
|  ADVICE TO THIS USER RUNNING 'VASP/VAMP'   (HEAR YOUR MASTER'S VOICE ...):  |
|                                                                             |
|      You have a (more or less) 'large supercell' and for larger cells       |
|      it might be more efficient to use real space projection opertators     |
|      So try LREAL= Auto  in the INCAR   file.                               |
|      Mind:          For very  accurate calculation you might also keep the  |
|      reciprocal projection scheme          (i.e. LREAL=.FALSE.)             |
|                                                                             |
 ----------------------------------------------------------------------------- 

 WARNING: PSMAXN for non-local potential too small
          PSMAXN should be >   12.5490833729506       NTYP=           2
  PAW_PBE Cd 06Sep2000                  :
 energy of atom  1       EATOM=-1293.1815
 kinetic energy error for atom=    0.0041 (will be added to EATOM!!)
  PAW_PBE In 08Apr2002                  :
 energy of atom  2       EATOM=  -53.7908
 kinetic energy error for atom=    0.0000 (will be added to EATOM!!)
  PAW_PBE S 06Sep2000                   :
 energy of atom  3       EATOM= -276.8230
 kinetic energy error for atom=    0.0009 (will be added to EATOM!!)
 
 
 POSCAR: CdIn2S4                                 
  positions in direct lattice
  velocities in cartesian coordinates
 exchange correlation table for  LEXCH =        8
   RHO(1)=    0.500       N(1)  =     2000
   RHO(2)=  100.500       N(2)  =     4000
 


--------------------------------------------------------------------------------------------------------


 ion  position               nearest neighbor table
   1  0.000  0.000  0.000-  42 2.57  46 2.57  52 2.57  30 2.57
   2  0.000  0.500  0.500-  29 2.57  34 2.57  43 2.57  53 2.57
   3  0.500  0.500  0.000-  31 2.57  35 2.57  56 2.57  45 2.57
   4  0.500  0.000  0.500-  32 2.57  33 2.57  51 2.57  44 2.57
   5  0.750  0.250  0.750-  26 2.57  38 2.57  48 2.57  49 2.57
   6  0.250  0.250  0.250-  25 2.57  41 2.57  47 2.57  54 2.57
   7  0.250  0.750  0.750-  27 2.57  36 2.57  39 2.57  50 2.57
   8  0.750  0.750  0.250-  28 2.57  37 2.57  40 2.57  55 2.57
   9  0.625  0.625  0.625-  44 2.66  45 2.66  53 2.66  48 2.66  50 2.66  40 2.66  17 3.90  18 3.90
                            19 3.90  20 3.90  22 3.90  23 3.90
  10  0.375  0.875  0.125-  35 2.66  37 2.66  39 2.66  54 2.66  51 2.66  46 2.66  14 3.90  15 3.90
                            16 3.90  20 3.90  21 3.90  23 3.90
  11  0.875  0.125  0.375-  33 2.66  38 2.66  55 2.66  47 2.66  52 2.66  43 2.66  13 3.90  15 3.90
                            16 3.90  19 3.90  22 3.90  24 3.90
  12  0.125  0.375  0.875-  34 2.66  36 2.66  49 2.66  41 2.66  42 2.66  56 2.66  13 3.90  14 3.90
                            17 3.90  18 3.90  21 3.90  24 3.90
  13  0.875  0.375  0.125-  31 2.66  28 2.66  49 2.66  41 2.66  43 2.66  52 2.66  11 3.90  12 3.90
                            16 3.90  18 3.90  21 3.90  22 3.90
  14  0.375  0.125  0.875-  32 2.66  26 2.66  39 2.66  54 2.66  42 2.66  56 2.66  10 3.90  12 3.90
                            16 3.90  17 3.90  23 3.90  24 3.90
  15  0.125  0.875  0.375-  29 2.66  27 2.66  55 2.66  47 2.66  51 2.66  46 2.66  10 3.90  11 3.90
                            19 3.90  20 3.90  21 3.90  24 3.90
  16  0.625  0.125  0.125-  52 2.66  37 2.66  26 2.66  54 2.66  33 2.66  31 2.66  10 3.90  11 3.90
                            13 3.90  14 3.90  22 3.90  23 3.90
  17  0.375  0.375  0.625-  56 2.66  50 2.66  48 2.66  25 2.66  34 2.66  32 2.66   9 3.90  12 3.90
                            14 3.90  20 3.90  22 3.90  24 3.90
  18  0.875  0.625  0.875-  30 2.66  45 2.66  53 2.66  28 2.66  49 2.66  36 2.66   9 3.90  12 3.90
                            13 3.90  19 3.90  21 3.90  23 3.90
  19  0.875  0.875  0.625-  30 2.66  44 2.66  53 2.66  27 2.66  38 2.66  55 2.66   9 3.90  11 3.90
                            15 3.90  18 3.90  23 3.90  24 3.90
  20  0.375  0.625  0.375-  51 2.66  50 2.66  40 2.66  25 2.66  35 2.66  29 2.66   9 3.90  10 3.90
                            15 3.90  17 3.90  21 3.90  22 3.90
  21  0.125  0.625  0.125-  46 2.66  36 2.66  28 2.66  41 2.66  35 2.66  29 2.66  10 3.90  12 3.90
                            13 3.90  15 3.90  18 3.90  20 3.90
  22  0.625  0.375  0.375-  43 2.66  40 2.66  48 2.66  25 2.66  33 2.66  31 2.66   9 3.90  11 3.90
                            13 3.90  16 3.90  17 3.90  20 3.90
  23  0.625  0.875  0.875-  30 2.66  44 2.66  45 2.66  39 2.66  26 2.66  37 2.66   9 3.90  10 3.90
                            14 3.90  16 3.90  18 3.90  19 3.90
  24  0.125  0.125  0.625-  42 2.66  38 2.66  27 2.66  47 2.66  34 2.66  32 2.66  11 3.90  12 3.90
                            14 3.90  15 3.90  17 3.90  19 3.90
  25  0.385  0.385  0.385-   6 2.57  17 2.66  20 2.66  22 2.66
  26  0.615  0.115  0.885-   5 2.57  14 2.66  16 2.66  23 2.66
  27  0.115  0.885  0.615-   7 2.57  15 2.66  24 2.66  19 2.66
  28  0.885  0.615  0.115-   8 2.57  13 2.66  21 2.66  18 2.66
  29  0.135  0.635  0.365-   2 2.57  15 2.66  20 2.66  21 2.66
  30  0.865  0.865  0.865-   1 2.57  18 2.66  19 2.66  23 2.66
  31  0.635  0.365  0.135-   3 2.57  13 2.66  16 2.66  22 2.66
  32  0.365  0.135  0.635-   4 2.57  14 2.66  17 2.66  24 2.66
  33  0.635  0.135  0.365-   4 2.57  11 2.66  16 2.66  22 2.66
  34  0.135  0.365  0.635-   2 2.57  12 2.66  17 2.66  24 2.66
  35  0.365  0.635  0.135-   3 2.57  10 2.66  20 2.66  21 2.66
  36  0.115  0.615  0.885-   7 2.57  12 2.66  21 2.66  18 2.66
  37  0.615  0.885  0.115-   8 2.57  10 2.66  16 2.66  23 2.66
  38  0.885  0.115  0.615-   5 2.57  11 2.66  24 2.66  19 2.66
  39  0.385  0.885  0.885-   7 2.57  10 2.66  14 2.66  23 2.66
  40  0.615  0.615  0.385-   8 2.57  20 2.66  22 2.66   9 2.66
  41  0.115  0.385  0.115-   6 2.57  12 2.66  13 2.66  21 2.66
  42  0.135  0.135  0.865-   1 2.57  24 2.66  14 2.66  12 2.66
  43  0.865  0.365  0.365-   2 2.57  22 2.66  13 2.66  11 2.66
  44  0.635  0.865  0.635-   4 2.57   9 2.66  19 2.66  23 2.66
  45  0.635  0.635  0.865-   3 2.57   9 2.66  18 2.66  23 2.66
  46  0.135  0.865  0.135-   1 2.57  21 2.66  15 2.66  10 2.66
  47  0.115  0.115  0.385-   6 2.57  11 2.66  15 2.66  24 2.66
  48  0.615  0.385  0.615-   5 2.57  17 2.66  22 2.66   9 2.66
  49  0.885  0.385  0.885-   5 2.57  12 2.66  13 2.66  18 2.66
  50  0.385  0.615  0.615-   7 2.57  17 2.66  20 2.66   9 2.66
  51  0.365  0.865  0.365-   4 2.57  20 2.66  15 2.66  10 2.66
  52  0.865  0.135  0.135-   1 2.57  16 2.66  13 2.66  11 2.66
  53  0.865  0.635  0.635-   2 2.57   9 2.66  18 2.66  19 2.66
  54  0.385  0.115  0.115-   6 2.57  10 2.66  14 2.66  16 2.66
  55  0.885  0.885  0.385-   8 2.57  11 2.66  15 2.66  19 2.66
  56  0.365  0.365  0.865-   3 2.57  17 2.66  14 2.66  12 2.66
 
  LATTYP: Found a simple cubic cell.
 ALAT       =    11.0428522121
  
  Lattice vectors:
  
 A1 = (  11.0428522121,   0.0000000000,   0.0000000000)
 A2 = (   0.0000000000,  11.0428522121,   0.0000000000)
 A3 = (   0.0000000000,   0.0000000000,  11.0428522121)


Analysis of symmetry for initial positions (statically):
=====================================================================
 Subroutine PRICEL returns following result:
 
  LATTYP: Found a face centered cubic cell.
 ALAT       =    11.0428522121
  
  Lattice vectors:
  
 A1 = (   5.5214261060,   5.5214261060,   0.0000000000)
 A2 = (   5.5214261060,   0.0000000000,  -5.5214261060)
 A3 = (   0.0000000000,   5.5214261060,  -5.5214261060)
 
   4 primitive cells build up your supercell.
 

 Routine SETGRP: Setting up the symmetry group for a 
 simple cubic supercell.


 Subroutine GETGRP returns: Found 48 space group operations
 (whereof 24 operations were pure point group operations)
 out of a pool of 48 trial point group operations.


The static configuration has the point symmetry T_d .
 The point group associated with its full space group is O_h .


Analysis of symmetry for dynamics (positions and initial velocities):
=====================================================================
 Subroutine PRICEL returns following result:
 
  LATTYP: Found a face centered cubic cell.
 ALAT       =    11.0428522121
  
  Lattice vectors:
  
 A1 = (   5.5214261060,   5.5214261060,   0.0000000000)
 A2 = (   5.5214261060,   0.0000000000,  -5.5214261060)
 A3 = (   0.0000000000,   5.5214261060,  -5.5214261060)
 
   4 primitive cells build up your supercell.
 

 Routine SETGRP: Setting up the symmetry group for a 
 simple cubic supercell.


 Subroutine GETGRP returns: Found 48 space group operations
 (whereof 24 operations were pure point group operations)
 out of a pool of 48 trial point group operations.


The dynamic configuration has the point symmetry T_d .
 The point group associated with its full space group is O_h .


 Subroutine INISYM returns: Found 48 space group operations
 (whereof 24 operations are pure point group operations),
 and found     4 'primitive' translations

 
 
 KPOINTS: k-points                                

Automatic generation of k-mesh.
Space group operators:
 irot       det(A)        alpha          n_x          n_y          n_z        tau_x        tau_y        tau_z
    1     1.000000     0.000000     1.000000     0.000000     0.000000     0.000000     0.000000     0.000000
    2     1.000000   120.000000    -0.577350    -0.577350    -0.577350     0.000000     0.000000     0.000000
    3     1.000000   120.000000     0.577350     0.577350     0.577350     0.000000     0.000000     0.000000
    4    -1.000000    90.000000     0.000000     0.000000    -1.000000     0.000000     0.000000     0.000000
    5    -1.000000   180.000000     0.000000     0.707107     0.707107     0.000000     0.000000     0.000000
    6    -1.000000    90.000000     0.000000     1.000000     0.000000     0.000000     0.000000     0.000000
    7     1.000000   180.000000     0.000000     0.000000     1.000000     0.000000     0.000000     0.000000
    8     1.000000   120.000000    -0.577350     0.577350     0.577350     0.000000     0.000000     0.000000
    9     1.000000   120.000000    -0.577350     0.577350    -0.577350     0.000000     0.000000     0.000000
   10    -1.000000    90.000000     0.000000     0.000000     1.000000     0.000000     0.000000     0.000000
   11    -1.000000    90.000000    -1.000000     0.000000     0.000000     0.000000     0.000000     0.000000
   12    -1.000000   180.000000     0.707107     0.000000     0.707107     0.000000     0.000000     0.000000
   13     1.000000   120.000000     0.577350    -0.577350     0.577350     0.000000     0.000000     0.000000
   14     1.000000   120.000000    -0.577350    -0.577350     0.577350     0.000000     0.000000     0.000000
   15     1.000000   180.000000     1.000000     0.000000     0.000000     0.000000     0.000000     0.000000
   16    -1.000000    90.000000     0.000000    -1.000000     0.000000     0.000000     0.000000     0.000000
   17    -1.000000   180.000000     0.707107     0.707107     0.000000     0.000000     0.000000     0.000000
   18    -1.000000    90.000000     1.000000     0.000000     0.000000     0.000000     0.000000     0.000000
   19     1.000000   120.000000     0.577350    -0.577350    -0.577350     0.000000     0.000000     0.000000
   20     1.000000   180.000000     0.000000     1.000000     0.000000     0.000000     0.000000     0.000000
   21     1.000000   120.000000     0.577350     0.577350    -0.577350     0.000000     0.000000     0.000000
   22    -1.000000   180.000000     0.000000    -0.707107     0.707107     0.000000     0.000000     0.000000
   23    -1.000000   180.000000     0.707107    -0.707107     0.000000     0.000000     0.000000     0.000000
   24    -1.000000   180.000000     0.707107     0.000000    -0.707107     0.000000     0.000000     0.000000
   25    -1.000000     0.000000     1.000000     0.000000     0.000000     0.750000     0.750000    -0.750000
   26    -1.000000   120.000000    -0.577350    -0.577350    -0.577350     0.750000     0.750000    -0.750000
   27    -1.000000   120.000000     0.577350     0.577350     0.577350     0.750000     0.750000    -0.750000
   28     1.000000    90.000000     0.000000     0.000000    -1.000000     0.750000     0.750000    -0.750000
   29     1.000000   180.000000     0.000000     0.707107     0.707107     0.750000     0.750000    -0.750000
   30     1.000000    90.000000     0.000000     1.000000     0.000000     0.750000     0.750000    -0.750000
   31    -1.000000   180.000000     0.000000     0.000000     1.000000     0.750000     0.750000    -0.750000
   32    -1.000000   120.000000    -0.577350     0.577350     0.577350     0.750000     0.750000    -0.750000
   33    -1.000000   120.000000    -0.577350     0.577350    -0.577350     0.750000     0.750000    -0.750000
   34     1.000000    90.000000     0.000000     0.000000     1.000000     0.750000     0.750000    -0.750000
   35     1.000000    90.000000    -1.000000     0.000000     0.000000     0.750000     0.750000    -0.750000
   36     1.000000   180.000000     0.707107     0.000000     0.707107     0.750000     0.750000    -0.750000
   37    -1.000000   120.000000     0.577350    -0.577350     0.577350     0.750000     0.750000    -0.750000
   38    -1.000000   120.000000    -0.577350    -0.577350     0.577350     0.750000     0.750000    -0.750000
   39    -1.000000   180.000000     1.000000     0.000000     0.000000     0.750000     0.750000    -0.750000
   40     1.000000    90.000000     0.000000    -1.000000     0.000000     0.750000     0.750000    -0.750000
   41     1.000000   180.000000     0.707107     0.707107     0.000000     0.750000     0.750000    -0.750000
   42     1.000000    90.000000     1.000000     0.000000     0.000000     0.750000     0.750000    -0.750000
   43    -1.000000   120.000000     0.577350    -0.577350    -0.577350     0.750000     0.750000    -0.750000
   44    -1.000000   180.000000     0.000000     1.000000     0.000000     0.750000     0.750000    -0.750000
   45    -1.000000   120.000000     0.577350     0.577350    -0.577350     0.750000     0.750000    -0.750000
   46     1.000000   180.000000     0.000000    -0.707107     0.707107     0.750000     0.750000    -0.750000
   47     1.000000   180.000000     0.707107    -0.707107     0.000000     0.750000     0.750000    -0.750000
   48     1.000000   180.000000     0.707107     0.000000    -0.707107     0.750000     0.750000    -0.750000
 
 Subroutine IBZKPT returns following result:
 ===========================================
 
 Found     10 irreducible k-points:
 
 Following reciprocal coordinates:
            Coordinates               Weight
  0.000000  0.000000  0.000000      1.000000
  0.250000  0.000000  0.000000      6.000000
  0.500000  0.000000  0.000000      3.000000
  0.250000  0.250000  0.000000     12.000000
  0.500000  0.250000  0.000000     12.000000
  0.500000  0.500000  0.000000      3.000000
  0.250000  0.250000  0.250000      8.000000
  0.500000  0.250000  0.250000     12.000000
  0.500000  0.500000  0.250000      6.000000
  0.500000  0.500000  0.500000      1.000000
 
 Following cartesian coordinates:
            Coordinates               Weight
  0.000000  0.000000  0.000000      1.000000
  0.022639  0.000000  0.000000      6.000000
  0.045278  0.000000  0.000000      3.000000
  0.022639  0.022639  0.000000     12.000000
  0.045278  0.022639  0.000000     12.000000
  0.045278  0.045278  0.000000      3.000000
  0.022639  0.022639  0.022639      8.000000
  0.045278  0.022639  0.022639     12.000000
  0.045278  0.045278  0.022639      6.000000
  0.045278  0.045278  0.045278      1.000000
 
 TETIRR: Found     30 inequivalent tetrahedra from      384
 
 Subroutine IBZKPT_HF returns following result:
 ==============================================
 
 Found     64 k-points in 1st BZ
 the following     64 k-points will be used (e.g. in the exchange kernel)
 Following reciprocal coordinates:   # in IRBZ
  0.000000  0.000000  0.000000    0.01562500   1 t-inv F
  0.250000  0.000000  0.000000    0.01562500   2 t-inv F
  0.500000  0.000000  0.000000    0.01562500   3 t-inv F
  0.250000  0.250000  0.000000    0.01562500   4 t-inv F
  0.500000  0.250000  0.000000    0.01562500   5 t-inv F
  0.500000  0.500000  0.000000    0.01562500   6 t-inv F
  0.250000  0.250000  0.250000    0.01562500   7 t-inv F
  0.500000  0.250000  0.250000    0.01562500   8 t-inv F
  0.500000  0.500000  0.250000    0.01562500   9 t-inv F
  0.500000  0.500000  0.500000    0.01562500  10 t-inv F
  0.000000  0.250000  0.000000    0.01562500   2 t-inv F
  0.000000  0.000000  0.250000    0.01562500   2 t-inv F
  0.000000 -0.250000  0.000000    0.01562500   2 t-inv F
  0.000000  0.000000 -0.250000    0.01562500   2 t-inv F
 -0.250000  0.000000  0.000000    0.01562500   2 t-inv F
  0.000000  0.500000  0.000000    0.01562500   3 t-inv F
  0.000000  0.000000  0.500000    0.01562500   3 t-inv F
  0.000000  0.250000  0.250000    0.01562500   4 t-inv F
  0.250000  0.000000  0.250000    0.01562500   4 t-inv F
  0.250000 -0.250000  0.000000    0.01562500   4 t-inv F
  0.250000  0.000000 -0.250000    0.01562500   4 t-inv F
  0.000000 -0.250000 -0.250000    0.01562500   4 t-inv F
 -0.250000 -0.250000  0.000000    0.01562500   4 t-inv F
  0.000000 -0.250000  0.250000    0.01562500   4 t-inv F
 -0.250000  0.000000  0.250000    0.01562500   4 t-inv F
 -0.250000  0.250000  0.000000    0.01562500   4 t-inv F
 -0.250000  0.000000 -0.250000    0.01562500   4 t-inv F
  0.000000  0.250000 -0.250000    0.01562500   4 t-inv F
  0.000000  0.500000  0.250000    0.01562500   5 t-inv F
  0.250000  0.000000  0.500000    0.01562500   5 t-inv F
  0.250000 -0.500000  0.000000    0.01562500   5 t-inv F
  0.500000  0.000000 -0.250000    0.01562500   5 t-inv F
  0.000000 -0.250000 -0.500000    0.01562500   5 t-inv F
 -0.500000 -0.250000  0.000000    0.01562500   5 t-inv F
 -0.250000  0.000000  0.500000    0.01562500   5 t-inv F
 -0.250000  0.500000  0.000000    0.01562500   5 t-inv F
  0.000000  0.250000 -0.500000    0.01562500   5 t-inv F
  0.000000 -0.500000 -0.250000    0.01562500   5 t-inv F
 -0.500000  0.000000  0.250000    0.01562500   5 t-inv F
  0.000000  0.500000  0.500000    0.01562500   6 t-inv F
  0.500000  0.000000  0.500000    0.01562500   6 t-inv F
  0.250000 -0.250000 -0.250000    0.01562500   7 t-inv F
 -0.250000 -0.250000  0.250000    0.01562500   7 t-inv F
 -0.250000  0.250000 -0.250000    0.01562500   7 t-inv F
 -0.250000 -0.250000 -0.250000    0.01562500   7 t-inv F
 -0.250000  0.250000  0.250000    0.01562500   7 t-inv F
  0.250000  0.250000 -0.250000    0.01562500   7 t-inv F
  0.250000 -0.250000  0.250000    0.01562500   7 t-inv F
  0.250000  0.500000  0.250000    0.01562500   8 t-inv F
  0.250000  0.250000  0.500000    0.01562500   8 t-inv F
  0.250000 -0.500000 -0.250000    0.01562500   8 t-inv F
  0.500000 -0.250000 -0.250000    0.01562500   8 t-inv F
  0.250000 -0.250000 -0.500000    0.01562500   8 t-inv F
 -0.500000 -0.250000  0.250000    0.01562500   8 t-inv F
 -0.250000 -0.500000  0.250000    0.01562500   8 t-inv F
 -0.250000 -0.250000  0.500000    0.01562500   8 t-inv F
 -0.250000  0.500000 -0.250000    0.01562500   8 t-inv F
 -0.500000  0.250000 -0.250000    0.01562500   8 t-inv F
 -0.250000  0.250000 -0.500000    0.01562500   8 t-inv F
  0.250000  0.500000  0.500000    0.01562500   9 t-inv F
  0.500000  0.250000  0.500000    0.01562500   9 t-inv F
  0.500000 -0.500000 -0.250000    0.01562500   9 t-inv F
  0.500000 -0.250000 -0.500000    0.01562500   9 t-inv F
 -0.250000 -0.500000  0.500000    0.01562500   9 t-inv F


--------------------------------------------------------------------------------------------------------




 Dimension of arrays:
   k-points           NKPTS =     10   k-points in BZ     NKDIM =     10   number of bands    NBANDS=    204
   number of dos      NEDOS =   2001   number of ions     NIONS =     56
   non local maximal  LDIM  =      6   non local SUM 2l+1 LMDIM =     18
   total plane-waves  NPLWV = 343000
   max r-space proj   IRMAX =      1   max aug-charges    IRDMAX=  28931
   dimension x,y,z NGX =    70 NGY =   70 NGZ =   70
   dimension x,y,z NGXF=   140 NGYF=  140 NGZF=  140
   support grid    NGXF=   140 NGYF=  140 NGZF=  140
   ions per type =               8  16  32
   NGX,Y,Z   is equivalent  to a cutoff of  10.54, 10.54, 10.54 a.u.
   NGXF,Y,Z  is equivalent  to a cutoff of  21.08, 21.08, 21.08 a.u.

 SYSTEM =  unknown system                          
 POSCAR =  CdIn2S4                                 

 Startparameter for this run:
   NWRITE =      2    write-flag & timer
   PREC   = normal    normal or accurate (medium, high low for compatibility)
   ISTART =      1    job   : 0-new  1-cont  2-samecut
   ICHARG =      0    charge: 1-file 2-atom 10-const
   ISPIN  =      1    spin polarized calculation?
   LNONCOLLINEAR =      F non collinear calculations
   LSORBIT =      F    spin-orbit coupling
   INIWAV =      1    electr: 0-lowe 1-rand  2-diag
   LASPH  =      F    aspherical Exc in radial PAW
   METAGGA=      F    non-selfconsistent MetaGGA calc.

 Electronic Relaxation 1
   ENCUT  =  600.0 eV  44.10 Ry    6.64 a.u.  22.06 22.06 22.06*2*pi/ulx,y,z
   ENINI  =  600.0     initial cutoff
   ENAUG  =  456.1 eV  augmentation charge cutoff
   NELM   =    100;   NELMIN=  2; NELMDL=  0     # of ELM steps 
   EDIFF  = 0.1E-03   stopping-criterion for ELM
   LREAL  =      F    real-space projection
   NLSPLINE    = F    spline interpolate recip. space projectors
   LCOMPAT=      F    compatible to vasp.4.4
   GGA_COMPAT  = T    GGA compatible to vasp.4.4-vasp.4.6
   LMAXPAW     = -100 max onsite density
   LMAXMIX     =    2 max onsite mixed and CHGCAR
   VOSKOWN=      0    Vosko Wilk Nusair interpolation
   ROPT   =    0.00000   0.00000   0.00000
 Ionic relaxation
   EDIFFG = 0.1E-02   stopping-criterion for IOM
   NSW    =      0    number of steps for IOM
   NBLOCK =      1;   KBLOCK =      1    inner block; outer block 
   IBRION =     -1    ionic relax: 0-MD 1-quasi-New 2-CG
   NFREE  =      0    steps in history (QN), initial steepest desc. (CG)
   ISIF   =      2    stress and relaxation
   IWAVPR =     10    prediction:  0-non 1-charg 2-wave 3-comb
   ISYM   =      2    0-nonsym 1-usesym 2-fastsym
   LCORR  =      T    Harris-Foulkes like correction to forces

   POTIM  = 0.5000    time-step for ionic-motion
   TEIN   =    0.0    initial temperature
   TEBEG  =    0.0;   TEEND  =   0.0 temperature during run
   SMASS  =  -3.00    Nose mass-parameter (am)
   estimated Nose-frequenzy (Omega)   =  0.10E-29 period in steps =****** mass=  -0.279E-26a.u.
   SCALEE = 1.0000    scale energy and forces
   NPACO  =    256;   APACO  = 16.0  distance and # of slots for P.C.
   PSTRESS=    0.0 pullay stress

  Mass of Ions in am
   POMASS = 112.41114.82 32.07
  Ionic Valenz
   ZVAL   =  12.00  3.00  6.00
  Atomic Wigner-Seitz radii
   RWIGS  =  -1.00 -1.00 -1.00
  virtual crystal weights 
   VCA    =   1.00  1.00  1.00
   NELECT =     336.0000    total number of electrons
   NUPDOWN=      -1.0000    fix difference up-down

 DOS related values:
   EMIN   = -20.00;   EMAX   = 20.00  energy-range for DOS
   EFERMI =   0.00
   ISMEAR =    -4;   SIGMA  =   0.20  broadening in eV -4-tet -1-fermi 0-gaus

 Electronic relaxation 2 (details)
   IALGO  =     38    algorithm
   LDIAG  =      T    sub-space diagonalisation (order eigenvalues)
   LSUBROT=      F    optimize rotation matrix (better conditioning)
   TURBO    =      0    0=normal 1=particle mesh
   IRESTART =      0    0=no restart 2=restart with 2 vectors
   NREBOOT  =      0    no. of reboots
   NMIN     =      0    reboot dimension
   EREF     =   0.00    reference energy to select bands
   IMIX   =      4    mixing-type and parameters
     AMIX     =   0.40;   BMIX     =  1.00
     AMIX_MAG =   1.60;   BMIX_MAG =  1.00
     AMIN     =   0.10
     WC   =   100.;   INIMIX=   1;  MIXPRE=   1;  MAXMIX= -45

 Intra band minimization:
   WEIMIN = 0.0000     energy-eigenvalue tresh-hold
   EBREAK =  0.12E-06  absolut break condition
   DEPER  =   0.30     relativ break condition  

   TIME   =   0.40     timestep for ELM

  volume/ion in A,a.u.               =      24.05       162.28
  Fermi-wavevector in a.u.,A,eV,Ry     =   1.030639  1.947626 14.452342  1.062217
  Thomas-Fermi vector in A             =   2.164747
 
 Write flags
   LWAVE        =      T    write WAVECAR
   LDOWNSAMPLE  =      F    k-point downsampling of WAVECAR
   LCHARG       =      T    write CHGCAR
   LVTOT        =      F    write LOCPOT, total local potential
   LVHAR        =      F    write LOCPOT, Hartree potential only
   LELF         =      F    write electronic localiz. function (ELF)
   LORBIT       =     11    0 simple, 1 ext, 2 COOP (PROOUT), +10 PAW based schemes


 Dipole corrections
   LMONO  =      F    monopole corrections only (constant potential shift)
   LDIPOL =      F    correct potential (dipole corrections)
   IDIPOL =      0    1-x, 2-y, 3-z, 4-all directions 
   EPSILON=  1.0000000 bulk dielectric constant

 Exchange correlation treatment:
   GGA     =    --    GGA type
   LEXCH   =     8    internal setting for exchange type
   VOSKOWN=      0    Vosko Wilk Nusair interpolation
   LHFCALC =     F    Hartree Fock is set to
   LHFONE  =     F    Hartree Fock one center treatment
   AEXX    =    0.0000 exact exchange contribution

 Linear response parameters
   LEPSILON=     T    determine dielectric tensor
   LRPA    =     F    only Hartree local field effects (RPA)
   LNABLA  =     F    use nabla operator in PAW spheres
   LVEL    =     F    velocity operator in full k-point grid
   LINTERFAST=   F  fast interpolation
   KINTER  =     0    interpolate to denser k-point grid
   CSHIFT  =0.1000    complex shift for real part using Kramers Kronig
   OMEGAMAX=  -1.0    maximum frequency
   DEG_THRESHOLD= 0.2000000E-02 threshold for treating states as degnerate
   RTIME   =   -0.100 relaxation time in fs
  (WPLASMAI=    0.000 imaginary part of plasma frequency in eV, 0.658/RTIME)
   DFIELD  = 0.0000000 0.0000000 0.0000000 field for delta impulse in time
 
 Orbital magnetization related:
   ORBITALMAG=     F  switch on orbital magnetization
   LCHIMAG   =     F  perturbation theory with respect to B field
   DQ        =  0.001000  dq finite difference perturbation B field
   LLRAUG    =     F  two centre corrections for induced B field



--------------------------------------------------------------------------------------------------------


 Static calculation
 charge density and potential will be updated during run
 non-spin polarized calculation
 Variant of blocked Davidson
 Davidson routine will perform the subspace rotation
 perform sub-space diagonalisation
    after iterative eigenvector-optimisation
 modified Broyden-mixing scheme, WC =      100.0
 initial mixing is a Kerker type mixing with AMIX =  0.4000 and BMIX =      1.0000
 Hartree-type preconditioning will be used
 using additional bands           36
 reciprocal scheme for non local part
 use partial core corrections
 calculate Harris-corrections to forces 
   (improved forces if not selfconsistent)
 use gradient corrections 
 use of overlap-Matrix (Vanderbilt PP)
 Fermi weights with tetrahedron method witout Bloechl corrections


--------------------------------------------------------------------------------------------------------


  energy-cutoff  :      600.00
  volume of cell :     1346.62
      direct lattice vectors                 reciprocal lattice vectors
    11.042852212  0.000000000  0.000000000     0.090556315  0.000000000  0.000000000
     0.000000000 11.042852212  0.000000000     0.000000000  0.090556315  0.000000000
     0.000000000  0.000000000 11.042852212     0.000000000  0.000000000  0.090556315

  length of vectors
    11.042852212 11.042852212 11.042852212     0.090556315  0.090556315  0.090556315


 
 old parameters found on file WAVECAR:
  energy-cutoff  :      600.00
  volume of cell :     1346.62
      direct lattice vectors                 reciprocal lattice vectors
    11.042852212  0.000000000  0.000000000     0.090556315  0.000000000  0.000000000
     0.000000000 11.042852212  0.000000000     0.000000000  0.090556315  0.000000000
     0.000000000  0.000000000 11.042852212     0.000000000  0.000000000  0.090556315

  length of vectors

 
 k-points in units of 2pi/SCALE and weight: k-points                                
   0.00000000  0.00000000  0.00000000       0.016
   0.02263908  0.00000000  0.00000000       0.094
   0.04527816  0.00000000  0.00000000       0.047
   0.02263908  0.02263908  0.00000000       0.188
   0.04527816  0.02263908  0.00000000       0.188
   0.04527816  0.04527816  0.00000000       0.047
   0.02263908  0.02263908  0.02263908       0.125
   0.04527816  0.02263908  0.02263908       0.188
   0.04527816  0.04527816  0.02263908       0.094
   0.04527816  0.04527816  0.04527816       0.016
 
 k-points in reciprocal lattice and weights: k-points                                
   0.00000000  0.00000000  0.00000000       0.016
   0.25000000  0.00000000  0.00000000       0.094
   0.50000000  0.00000000  0.00000000       0.047
   0.25000000  0.25000000  0.00000000       0.188
   0.50000000  0.25000000  0.00000000       0.188
   0.50000000  0.50000000  0.00000000       0.047
   0.25000000  0.25000000  0.25000000       0.125
   0.50000000  0.25000000  0.25000000       0.188
   0.50000000  0.50000000  0.25000000       0.094
   0.50000000  0.50000000  0.50000000       0.016
 
 position of ions in fractional coordinates (direct lattice) 
   0.00000000  0.00000000  0.00000000
   0.00000000  0.50000000  0.50000000
   0.50000000  0.50000000  0.00000000
   0.50000000  0.00000000  0.50000000
   0.75000000  0.25000000  0.75000000
   0.25000000  0.25000000  0.25000000
   0.25000000  0.75000000  0.75000000
   0.75000000  0.75000000  0.25000000
   0.62500000  0.62500000  0.62500000
   0.37500000  0.87500000  0.12500000
   0.87500000  0.12500000  0.37500000
   0.12500000  0.37500000  0.87500000
   0.87500000  0.37500000  0.12500000
   0.37500000  0.12500000  0.87500000
   0.12500000  0.87500000  0.37500000
   0.62500000  0.12500000  0.12500000
   0.37500000  0.37500000  0.62500000
   0.87500000  0.62500000  0.87500000
   0.87500000  0.87500000  0.62500000
   0.37500000  0.62500000  0.37500000
   0.12500000  0.62500000  0.12500000
   0.62500000  0.37500000  0.37500000
   0.62500000  0.87500000  0.87500000
   0.12500000  0.12500000  0.62500000
   0.38452465  0.38452465  0.38452465
   0.61547532  0.11547535  0.88452468
   0.11547535  0.88452468  0.61547532
   0.88452468  0.61547532  0.11547535
   0.13452465  0.63452468  0.36547535
   0.86547532  0.86547532  0.86547532
   0.63452468  0.36547535  0.13452465
   0.36547535  0.13452465  0.63452468
   0.63452468  0.13452465  0.36547535
   0.13452465  0.36547535  0.63452468
   0.36547535  0.63452468  0.13452465
   0.11547535  0.61547532  0.88452468
   0.61547532  0.88452468  0.11547535
   0.88452468  0.11547535  0.61547532
   0.38452465  0.88452468  0.88452468
   0.61547532  0.61547532  0.38452465
   0.11547535  0.38452465  0.11547535
   0.13452465  0.13452465  0.86547532
   0.86547532  0.36547535  0.36547535
   0.63452468  0.86547532  0.63452468
   0.63452468  0.63452468  0.86547532
   0.13452465  0.86547532  0.13452465
   0.11547535  0.11547535  0.38452465
   0.61547532  0.38452465  0.61547532
   0.88452468  0.38452465  0.88452468
   0.38452465  0.61547532  0.61547532
   0.36547535  0.86547532  0.36547535
   0.86547532  0.13452465  0.13452465
   0.86547532  0.63452468  0.63452468
   0.38452465  0.11547535  0.11547535
   0.88452468  0.88452468  0.38452465
   0.36547535  0.36547535  0.86547532
 
 position of ions in cartesian coordinates  (Angst):
   0.00000000  0.00000000  0.00000000
   0.00000000  5.52142611  5.52142611
   5.52142611  5.52142611  0.00000000
   5.52142611  0.00000000  5.52142611
   8.28213916  2.76071305  8.28213916
   2.76071305  2.76071305  2.76071305
   2.76071305  8.28213916  8.28213916
   8.28213916  8.28213916  2.76071305
   6.90178263  6.90178263  6.90178263
   4.14106958  9.66249569  1.38035653
   9.66249569  1.38035653  4.14106958
   1.38035653  4.14106958  9.66249569
   9.66249569  4.14106958  1.38035653
   4.14106958  1.38035653  9.66249569
   1.38035653  9.66249569  4.14106958
   6.90178263  1.38035653  1.38035653
   4.14106958  4.14106958  6.90178263
   9.66249569  6.90178263  9.66249569
   9.66249569  9.66249569  6.90178263
   4.14106958  6.90178263  4.14106958
   1.38035653  6.90178263  1.38035653
   6.90178263  4.14106958  4.14106958
   6.90178263  9.66249569  9.66249569
   1.38035653  1.38035653  6.90178263
   4.24624889  4.24624889  4.24624889
   6.79660299  1.27517721  9.76767533
   1.27517721  9.76767533  6.79660299
   9.76767533  6.79660299  1.27517721
   1.48553584  7.00696228  4.03589027
   9.55731604  9.55731604  9.55731604
   7.00696228  4.03589027  1.48553584
   4.03589027  1.48553584  7.00696228
   7.00696228  1.48553584  4.03589027
   1.48553584  4.03589027  7.00696228
   4.03589027  7.00696228  1.48553584
   1.27517721  6.79660299  9.76767533
   6.79660299  9.76767533  1.27517721
   9.76767533  1.27517721  6.79660299
   4.24624889  9.76767533  9.76767533
   6.79660299  6.79660299  4.24624889
   1.27517721  4.24624889  1.27517721
   1.48553584  1.48553584  9.55731604
   9.55731604  4.03589027  4.03589027
   7.00696228  9.55731604  7.00696228
   7.00696228  7.00696228  9.55731604
   1.48553584  9.55731604  1.48553584
   1.27517721  1.27517721  4.24624889
   6.79660299  4.24624889  6.79660299
   9.76767533  4.24624889  9.76767533
   4.24624889  6.79660299  6.79660299
   4.03589027  9.55731604  4.03589027
   9.55731604  1.48553584  1.48553584
   9.55731604  7.00696228  7.00696228
   4.24624889  1.27517721  1.27517721
   9.76767533  9.76767533  4.24624889
   4.03589027  4.03589027  9.55731604
 


--------------------------------------------------------------------------------------------------------


 k-point  1 :   0.0000 0.0000 0.0000  plane waves:   45025
 k-point  2 :   0.2500 0.0000 0.0000  plane waves:   44896
 k-point  3 :   0.5000 0.0000 0.0000  plane waves:   44892
 k-point  4 :   0.2500 0.2500 0.0000  plane waves:   44897
 k-point  5 :   0.5000 0.2500 0.0000  plane waves:   44974
 k-point  6 :   0.5000 0.5000 0.0000  plane waves:   44824
 k-point  7 :   0.2500 0.2500 0.2500  plane waves:   44929
 k-point  8 :   0.5000 0.2500 0.2500  plane waves:   44974
 k-point  9 :   0.5000 0.5000 0.2500  plane waves:   44940
 k-point 10 :   0.5000 0.5000 0.5000  plane waves:   44912

 maximum and minimum number of plane-waves per node :      7544     7436

 maximum number of plane-waves:     45025
 maximum index in each direction: 
   IXMAX=   22   IYMAX=   22   IZMAX=   22
   IXMIN=  -22   IYMIN=  -22   IZMIN=  -22


 parallel 3D FFT for wavefunctions:
    minimum data exchange during FFTs selected (reduces bandwidth)
 parallel 3D FFT for charge:
    minimum data exchange during FFTs selected (reduces bandwidth)


 total amount of memory used by VASP MPI-rank0   122454. kBytes
=======================================================================

   base      :      30000. kBytes
   nonl-proj :      39057. kBytes
   fftplans  :       4452. kBytes
   grid      :       7436. kBytes
   one-center:        155. kBytes
   wavefun   :      41354. kBytes
 
     INWAV:  cpu time    3.6406: real time    3.8519
 Broyden mixing: mesh for mixing (old mesh)
   NGX = 45   NGY = 45   NGZ = 45
  (NGX  =140   NGY  =140   NGZ  =140)
  gives a total of  91125 points

 charge density for first step will be calculated from the start-wavefunctions


--------------------------------------------------------------------------------------------------------


 Maximum index for augmentation-charges          596 (set IRDMAX)


--------------------------------------------------------------------------------------------------------


 initial charge from wavefunction
 First call to EWALD:  gamma=   0.161
 Maximum number of real-space cells 3x 3x 3
 Maximum number of reciprocal cells 3x 3x 3

    FEWALD:  cpu time    0.0027: real time    0.0028


--------------------------------------- Iteration      1(   1)  ---------------------------------------


    POTLOK:  cpu time    0.0504: real time    0.0696
    SETDIJ:  cpu time    0.0080: real time    0.0081
     EDDAV:  cpu time    8.6753: real time    8.7000
 BZINTS: Fermi energy:  2.445000;336.000000 electrons
         Band energy:-897.381892;  BLOECHL correction:  0.000000
       DOS:  cpu time    0.0035: real time    0.0035
    CHARGE:  cpu time    0.3117: real time    0.3125
    MIXING:  cpu time    0.0026: real time    0.0026
    --------------------------------------------
      LOOP:  cpu time    9.0515: real time    9.0963

 eigenvalue-minimisations  :  2400
 total energy-change (2. order) :-0.2126495E+03  (-0.1035320E-04)
 number of electron     335.9999873 magnetization 
 augmentation part       10.8368459 magnetization 

 Broyden mixing:
  rms(total) = 0.17622E-02    rms(broyden)= 0.17622E-02
  rms(prec ) = 0.23771E-02
  weight for this iteration     100.00

 Free energy of the ion-electron system (eV)
  ---------------------------------------------------
  alpha Z        PSCENC =       566.98349249
  Ewald energy   TEWEN  =    -15316.85407618
  -Hartree energ DENC   =     -5511.55201474
  -exchange      EXHF   =         0.00000000
  -V(xc)+E(xc)   XCENC  =      -438.90722655
  PAW double counting   =     31475.67696699   -30154.99485154
  entropy T*S    EENTRO =         0.00000000
  eigenvalues    EBANDS =      -897.38189204
  atomic energy  EATOM  =     20064.38009706
  Solvation  Ediel_sol  =         0.00000000
  ---------------------------------------------------
  free energy    TOTEN  =      -212.64950451 eV

  energy without entropy =     -212.64950451  energy(sigma->0) =     -212.64950451


--------------------------------------------------------------------------------------------------------




--------------------------------------- Iteration      1(   2)  ---------------------------------------


    POTLOK:  cpu time    0.0494: real time    0.0517
    SETDIJ:  cpu time    0.0079: real time    0.0079
     EDDAV:  cpu time    8.0931: real time    8.1155
 BZINTS: Fermi energy:  2.445000;336.000000 electrons
         Band energy:-897.455505;  BLOECHL correction:  0.000000
       DOS:  cpu time    0.0035: real time    0.0035
    --------------------------------------------
      LOOP:  cpu time    8.1538: real time    8.1787

 eigenvalue-minimisations  :  2148
 total energy-change (2. order) : 0.8644558E-05  (-0.2785606E-05)
 number of electron     335.9999873 magnetization 
 augmentation part       10.8368459 magnetization 

 Free energy of the ion-electron system (eV)
  ---------------------------------------------------
  alpha Z        PSCENC =       566.98349249
  Ewald energy   TEWEN  =    -15316.85407618
  -Hartree energ DENC   =     -5511.48299298
  -exchange      EXHF   =         0.00000000
  -V(xc)+E(xc)   XCENC  =      -438.90844923
  PAW double counting   =     31475.69488128   -30155.00694355
  entropy T*S    EENTRO =         0.00000000
  eigenvalues    EBANDS =      -897.45550476
  atomic energy  EATOM  =     20064.38009706
  Solvation  Ediel_sol  =         0.00000000
  ---------------------------------------------------
  free energy    TOTEN  =      -212.64949587 eV

  energy without entropy =     -212.64949587  energy(sigma->0) =     -212.64949587


--------------------------------------------------------------------------------------------------------




 average (electrostatic) potential at core
  the test charge radii are     1.0698  1.4837  0.9698
  (the norm of the test charge is              1.0000)
       1 -38.1419       2 -38.1419       3 -38.1419       4 -38.1419       5 -38.1419
       6 -38.1419       7 -38.1419       8 -38.1419       9 -39.2112      10 -39.2112
      11 -39.2112      12 -39.2112      13 -39.2112      14 -39.2112      15 -39.2112
      16 -39.2112      17 -39.2112      18 -39.2112      19 -39.2112      20 -39.2112
      21 -39.2112      22 -39.2112      23 -39.2112      24 -39.2112      25 -87.7682
      26 -87.7682      27 -87.7682      28 -87.7682      29 -87.7682      30 -87.7682
      31 -87.7682      32 -87.7682      33 -87.7682      34 -87.7682      35 -87.7682
      36 -87.7682      37 -87.7682      38 -87.7682      39 -87.7682      40 -87.7682
      41 -87.7682      42 -87.7682      43 -87.7682      44 -87.7682      45 -87.7682
      46 -87.7682      47 -87.7682      48 -87.7682      49 -87.7682      50 -87.7682
      51 -87.7682      52 -87.7682      53 -87.7682      54 -87.7682      55 -87.7682
      56 -87.7682
 
 
 
 E-fermi :   2.4450     XC(G=0):  -9.1978     alpha+bet : -8.9710


 k-point     1 :       0.0000    0.0000    0.0000
  band No.  band energies     occupation 
      1     -10.1257      2.00000
      2      -9.6339      2.00000
      3      -9.6339      2.00000
      4      -9.6339      2.00000
      5      -9.6339      2.00000
      6      -9.6339      2.00000
      7      -9.6339      2.00000
      8      -9.1424      2.00000
      9      -8.9755      2.00000
     10      -8.9755      2.00000
     11      -8.9755      2.00000
     12      -8.9755      2.00000
     13      -8.9755      2.00000
     14      -8.9755      2.00000
     15      -8.9545      2.00000
     16      -8.9545      2.00000
     17      -8.9545      2.00000
     18      -8.8512      2.00000
     19      -8.8512      2.00000
     20      -8.8512      2.00000
     21      -8.8512      2.00000
     22      -8.8512      2.00000
     23      -8.8512      2.00000
     24      -8.5682      2.00000
     25      -8.5682      2.00000
     26      -8.5682      2.00000
     27      -8.5578      2.00000
     28      -8.5578      2.00000
     29      -8.5578      2.00000
     30      -8.5578      2.00000
     31      -8.5578      2.00000
     32      -8.5578      2.00000
     33      -4.9630      2.00000
     34      -4.9630      2.00000
     35      -4.9630      2.00000
     36      -4.9630      2.00000
     37      -4.9630      2.00000
     38      -4.9630      2.00000
     39      -4.8770      2.00000
     40      -4.8770      2.00000
     41      -4.8770      2.00000
     42      -4.8770      2.00000
     43      -4.8770      2.00000
     44      -4.8770      2.00000
     45      -4.8113      2.00000
     46      -4.8113      2.00000
     47      -4.8019      2.00000
     48      -4.8019      2.00000
     49      -4.8019      2.00000
     50      -4.7940      2.00000
     51      -4.7940      2.00000
     52      -4.7940      2.00000
     53      -4.7869      2.00000
     54      -4.7869      2.00000
     55      -4.7869      2.00000
     56      -4.7869      2.00000
     57      -4.7869      2.00000
     58      -4.7869      2.00000
     59      -4.7863      2.00000
     60      -4.7863      2.00000
     61      -4.7863      2.00000
     62      -4.7863      2.00000
     63      -4.7863      2.00000
     64      -4.7863      2.00000
     65      -4.7693      2.00000
     66      -4.7693      2.00000
     67      -4.7669      2.00000
     68      -4.7669      2.00000
     69      -4.7669      2.00000
     70      -4.7668      2.00000
     71      -4.7668      2.00000
     72      -4.7668      2.00000
     73      -2.8602      2.00000
     74      -2.7070      2.00000
     75      -2.7070      2.00000
     76      -2.7070      2.00000
     77      -2.2634      2.00000
     78      -2.2634      2.00000
     79      -2.2634      2.00000
     80      -2.2634      2.00000
     81      -2.2634      2.00000
     82      -2.2634      2.00000
     83      -2.1951      2.00000
     84      -1.8804      2.00000
     85      -1.8804      2.00000
     86      -1.8804      2.00000
     87      -1.8804      2.00000
     88      -1.8804      2.00000
     89      -1.8804      2.00000
     90      -1.0045      2.00000
     91      -1.0045      2.00000
     92      -0.9478      2.00000
     93      -0.9478      2.00000
     94      -0.9478      2.00000
     95      -0.9478      2.00000
     96      -0.9478      2.00000
     97      -0.9478      2.00000
     98      -0.2508      2.00000
     99      -0.2508      2.00000
    100      -0.2508      2.00000
    101      -0.2508      2.00000
    102      -0.2508      2.00000
    103      -0.2508      2.00000
    104       0.0286      2.00000
    105       0.0286      2.00000
    106       0.0286      2.00000
    107       0.0286      2.00000
    108       0.0286      2.00000
    109       0.0286      2.00000
    110       0.2871      2.00000
    111       0.2871      2.00000
    112       0.2871      2.00000
    113       0.2871      2.00000
    114       0.2871      2.00000
    115       0.2871      2.00000
    116       0.3312      2.00000
    117       0.3312      2.00000
    118       0.3312      2.00000
    119       0.3312      2.00000
    120       0.3312      2.00000
    121       0.3312      2.00000
    122       0.4004      2.00000
    123       0.4004      2.00000
    124       0.4004      2.00000
    125       0.8553      2.00000
    126       0.8553      2.00000
    127       0.8553      2.00000
    128       0.9229      2.00000
    129       0.9229      2.00000
    130       0.9229      2.00000
    131       0.9229      2.00000
    132       0.9229      2.00000
    133       0.9229      2.00000
    134       1.2596      2.00000
    135       1.2596      2.00000
    136       1.2596      2.00000
    137       1.2596      2.00000
    138       1.2596      2.00000
    139       1.2596      2.00000
    140       1.5410      2.00000
    141       1.5410      2.00000
    142       1.5410      2.00000
    143       1.5410      2.00000
    144       1.5410      2.00000
    145       1.5410      2.00000
    146       1.9776      2.00000
    147       1.9776      2.00000
    148       1.9776      2.00000
    149       2.0844      2.00000
    150       2.0844      2.00000
    151       2.0844      2.00000
    152       2.0844      2.00000
    153       2.0844      2.00000
    154       2.0844      2.00000
    155       2.1453      2.00000
    156       2.1453      2.00000
    157       2.1453      2.00000
    158       2.2337      2.00000
    159       2.2337      2.00000
    160       2.3146      2.00000
    161       2.3146      2.00000
    162       2.3146      2.00000
    163       2.3146      2.00000
    164       2.3146      2.00000
    165       2.3146      2.00000
    166       2.3300      2.00000
    167       2.3300      2.00000
    168       2.3300      2.00000
    169       3.4536      0.00000
    170       4.4129      0.00000
    171       4.4129      0.00000
    172       4.4129      0.00000
    173       4.8062      0.00000
    174       5.5796      0.00000
    175       5.5796      0.00000
    176       5.5796      0.00000
    177       5.5796      0.00000
    178       5.5796      0.00000
    179       5.5796      0.00000
    180       5.8585      0.00000
    181       5.8585      0.00000
    182       5.8585      0.00000
    183       5.8585      0.00000
    184       5.8585      0.00000
    185       5.8585      0.00000
    186       6.2846      0.00000
    187       6.7836      0.00000
    188       6.7836      0.00000
    189       6.7836      0.00000
    190       6.9047      0.00000
    191       6.9047      0.00000
    192       6.9047      0.00000
    193       6.9047      0.00000
    194       6.9047      0.00000
    195       6.9047      0.00000
    196       7.8422      0.00000
    197       7.8422      0.00000
    198       7.8422      0.00000
    199       7.8422      0.00000
    200       7.8422      0.00000
    201       7.8422      0.00000
    202       8.0810      0.00000
    203       8.0810      0.00000
    204       8.0810      0.00000

 k-point     2 :       0.2500    0.0000    0.0000
  band No.  band energies     occupation 
      1     -10.0899      2.00000
      2      -9.8270      2.00000
      3      -9.6308      2.00000
      4      -9.6308      2.00000
      5      -9.6308      2.00000
      6      -9.6308      2.00000
      7      -9.4394      2.00000
      8      -9.1770      2.00000
      9      -9.0214      2.00000
     10      -9.0214      2.00000
     11      -9.0214      2.00000
     12      -9.0214      2.00000
     13      -8.9726      2.00000
     14      -8.9726      2.00000
     15      -8.9577      2.00000
     16      -8.9577      2.00000
     17      -8.9504      2.00000
     18      -8.9048      2.00000
     19      -8.7860      2.00000
     20      -8.7860      2.00000
     21      -8.7860      2.00000
     22      -8.7860      2.00000
     23      -8.7728      2.00000
     24      -8.5999      2.00000
     25      -8.5801      2.00000
     26      -8.5801      2.00000
     27      -8.5801      2.00000
     28      -8.5801      2.00000
     29      -8.5666      2.00000
     30      -8.5666      2.00000
     31      -8.5592      2.00000
     32      -8.5592      2.00000
     33      -4.9714      2.00000
     34      -4.9714      2.00000
     35      -4.9714      2.00000
     36      -4.9714      2.00000
     37      -4.9510      2.00000
     38      -4.9364      2.00000
     39      -4.8677      2.00000
     40      -4.8677      2.00000
     41      -4.8557      2.00000
     42      -4.8557      2.00000
     43      -4.8557      2.00000
     44      -4.8557      2.00000
     45      -4.8380      2.00000
     46      -4.8271      2.00000
     47      -4.8154      2.00000
     48      -4.8154      2.00000
     49      -4.8091      2.00000
     50      -4.7982      2.00000
     51      -4.7952      2.00000
     52      -4.7930      2.00000
     53      -4.7898      2.00000
     54      -4.7898      2.00000
     55      -4.7898      2.00000
     56      -4.7898      2.00000
     57      -4.7894      2.00000
     58      -4.7894      2.00000
     59      -4.7861      2.00000
     60      -4.7861      2.00000
     61      -4.7861      2.00000
     62      -4.7861      2.00000
     63      -4.7795      2.00000
     64      -4.7794      2.00000
     65      -4.7748      2.00000
     66      -4.7748      2.00000
     67      -4.7748      2.00000
     68      -4.7748      2.00000
     69      -4.7709      2.00000
     70      -4.7709      2.00000
     71      -4.7705      2.00000
     72      -4.7703      2.00000
     73      -2.7481      2.00000
     74      -2.6425      2.00000
     75      -2.6425      2.00000
     76      -2.6172      2.00000
     77      -2.3602      2.00000
     78      -2.3602      2.00000
     79      -2.3602      2.00000
     80      -2.3602      2.00000
     81      -2.3282      2.00000
     82      -2.3282      2.00000
     83      -2.0854      2.00000
     84      -2.0795      2.00000
     85      -2.0499      2.00000
     86      -1.7386      2.00000
     87      -1.7386      2.00000
     88      -1.7386      2.00000
     89      -1.7386      2.00000
     90      -1.4139      2.00000
     91      -0.9540      2.00000
     92      -0.9190      2.00000
     93      -0.9060      2.00000
     94      -0.9060      2.00000
     95      -0.9060      2.00000
     96      -0.9060      2.00000
     97      -0.5651      2.00000
     98      -0.4548      2.00000
     99      -0.2603      2.00000
    100      -0.2603      2.00000
    101      -0.2603      2.00000
    102      -0.2603      2.00000
    103      -0.2379      2.00000
    104      -0.2238      2.00000
    105      -0.2238      2.00000
    106      -0.2238      2.00000
    107      -0.2238      2.00000
    108       0.1086      2.00000
    109       0.1374      2.00000
    110       0.1374      2.00000
    111       0.1374      2.00000
    112       0.1374      2.00000
    113       0.2250      2.00000
    114       0.2387      2.00000
    115       0.2387      2.00000
    116       0.2817      2.00000
    117       0.3641      2.00000
    118       0.3641      2.00000
    119       0.4094      2.00000
    120       0.5990      2.00000
    121       0.5990      2.00000
    122       0.5990      2.00000
    123       0.5990      2.00000
    124       0.7450      2.00000
    125       0.8400      2.00000
    126       0.8400      2.00000
    127       0.9591      2.00000
    128       1.0640      2.00000
    129       1.0640      2.00000
    130       1.0640      2.00000
    131       1.0640      2.00000
    132       1.0662      2.00000
    133       1.0662      2.00000
    134       1.1968      2.00000
    135       1.1968      2.00000
    136       1.2911      2.00000
    137       1.2911      2.00000
    138       1.2911      2.00000
    139       1.2911      2.00000
    140       1.5966      2.00000
    141       1.5966      2.00000
    142       1.5966      2.00000
    143       1.5966      2.00000
    144       1.6171      2.00000
    145       1.6883      2.00000
    146       1.7229      2.00000
    147       1.7229      2.00000
    148       1.9225      2.00000
    149       1.9225      2.00000
    150       1.9225      2.00000
    151       1.9225      2.00000
    152       1.9233      2.00000
    153       1.9233      2.00000
    154       2.0728      2.00000
    155       2.0916      2.00000
    156       2.0916      2.00000
    157       2.1074      2.00000
    158       2.1074      2.00000
    159       2.2224      2.00000
    160       2.2224      2.00000
    161       2.2520      2.00000
    162       2.2862      2.00000
    163       2.2862      2.00000
    164       2.2862      2.00000
    165       2.2862      2.00000
    166       2.3055      2.00000
    167       2.3191      2.00000
    168       2.3281      2.00000
    169       3.9953      0.00000
    170       4.5091      0.00000
    171       4.6067      0.00000
    172       4.6067      0.00000
    173       5.1103      0.00000
    174       5.2577      0.00000
    175       5.4987      0.00000
    176       5.6363      0.00000
    177       5.6363      0.00000
    178       5.6441      0.00000
    179       5.6441      0.00000
    180       5.6441      0.00000
    181       5.6441      0.00000
    182       5.8438      0.00000
    183       5.8438      0.00000
    184       5.8438      0.00000
    185       5.8438      0.00000
    186       6.3514      0.00000
    187       6.4199      0.00000
    188       6.8244      0.00000
    189       6.8534      0.00000
    190       6.8534      0.00000
    191       6.8534      0.00000
    192       6.8534      0.00000
    193       6.9675      0.00000
    194       6.9675      0.00000
    195       7.0218      0.00000
    196       7.6877      0.00000
    197       7.8037      0.00000
    198       7.8037      0.00000
    199       7.8037      0.00000
    200       7.8037      0.00000
    201       7.8682      0.00000
    202       7.8682      0.00000
    203       8.1824      0.00000
    204       8.2137      0.00000

 k-point     3 :       0.5000    0.0000    0.0000
  band No.  band energies     occupation 
      1      -9.9863      2.00000
      2      -9.9863      2.00000
      3      -9.6276      2.00000
      4      -9.6276      2.00000
      5      -9.6276      2.00000
      6      -9.6276      2.00000
      7      -9.2789      2.00000
      8      -9.2789      2.00000
      9      -9.0516      2.00000
     10      -9.0516      2.00000
     11      -9.0516      2.00000
     12      -9.0516      2.00000
     13      -8.9652      2.00000
     14      -8.9652      2.00000
     15      -8.9652      2.00000
     16      -8.9652      2.00000
     17      -8.9358      2.00000
     18      -8.9358      2.00000
     19      -8.7231      2.00000
     20      -8.7231      2.00000
     21      -8.7231      2.00000
     22      -8.7231      2.00000
     23      -8.6796      2.00000
     24      -8.6796      2.00000
     25      -8.6158      2.00000
     26      -8.6158      2.00000
     27      -8.6158      2.00000
     28      -8.6158      2.00000
     29      -8.5627      2.00000
     30      -8.5627      2.00000
     31      -8.5627      2.00000
     32      -8.5627      2.00000
     33      -4.9779      2.00000
     34      -4.9779      2.00000
     35      -4.9779      2.00000
     36      -4.9779      2.00000
     37      -4.9012      2.00000
     38      -4.9012      2.00000
     39      -4.8832      2.00000
     40      -4.8832      2.00000
     41      -4.8432      2.00000
     42      -4.8432      2.00000
     43      -4.8432      2.00000
     44      -4.8432      2.00000
     45      -4.8249      2.00000
     46      -4.8249      2.00000
     47      -4.8249      2.00000
     48      -4.8249      2.00000
     49      -4.8063      2.00000
     50      -4.8063      2.00000
     51      -4.8063      2.00000
     52      -4.8063      2.00000
     53      -4.8032      2.00000
     54      -4.8032      2.00000
     55      -4.7975      2.00000
     56      -4.7975      2.00000
     57      -4.7847      2.00000
     58      -4.7847      2.00000
     59      -4.7847      2.00000
     60      -4.7847      2.00000
     61      -4.7817      2.00000
     62      -4.7817      2.00000
     63      -4.7817      2.00000
     64      -4.7817      2.00000
     65      -4.7803      2.00000
     66      -4.7803      2.00000
     67      -4.7803      2.00000
     68      -4.7803      2.00000
     69      -4.7739      2.00000
     70      -4.7739      2.00000
     71      -4.7738      2.00000
     72      -4.7738      2.00000
     73      -2.4858      2.00000
     74      -2.4858      2.00000
     75      -2.4858      2.00000
     76      -2.4858      2.00000
     77      -2.4498      2.00000
     78      -2.4498      2.00000
     79      -2.4265      2.00000
     80      -2.4265      2.00000
     81      -2.4265      2.00000
     82      -2.4265      2.00000
     83      -2.3694      2.00000
     84      -2.3694      2.00000
     85      -1.8013      2.00000
     86      -1.8013      2.00000
     87      -1.6255      2.00000
     88      -1.6255      2.00000
     89      -1.6255      2.00000
     90      -1.6255      2.00000
     91      -0.8055      2.00000
     92      -0.8055      2.00000
     93      -0.8055      2.00000
     94      -0.8055      2.00000
     95      -0.8050      2.00000
     96      -0.8050      2.00000
     97      -0.6607      2.00000
     98      -0.6607      2.00000
     99      -0.5029      2.00000
    100      -0.5029      2.00000
    101      -0.5029      2.00000
    102      -0.5029      2.00000
    103      -0.1801      2.00000
    104      -0.1801      2.00000
    105      -0.1801      2.00000
    106      -0.1801      2.00000
    107      -0.0294      2.00000
    108      -0.0294      2.00000
    109      -0.0198      2.00000
    110      -0.0198      2.00000
    111      -0.0198      2.00000
    112      -0.0198      2.00000
    113       0.2667      2.00000
    114       0.2667      2.00000
    115       0.2667      2.00000
    116       0.2667      2.00000
    117       0.4651      2.00000
    118       0.4651      2.00000
    119       0.8259      2.00000
    120       0.8259      2.00000
    121       0.8259      2.00000
    122       0.8259      2.00000
    123       0.8480      2.00000
    124       0.8480      2.00000
    125       0.9079      2.00000
    126       0.9079      2.00000
    127       0.9079      2.00000
    128       0.9079      2.00000
    129       1.0570      2.00000
    130       1.0570      2.00000
    131       1.1116      2.00000
    132       1.1116      2.00000
    133       1.1116      2.00000
    134       1.1116      2.00000
    135       1.4151      2.00000
    136       1.4151      2.00000
    137       1.4151      2.00000
    138       1.4151      2.00000
    139       1.5839      2.00000
    140       1.5839      2.00000
    141       1.6060      2.00000
    142       1.6060      2.00000
    143       1.6060      2.00000
    144       1.6060      2.00000
    145       1.6106      2.00000
    146       1.6106      2.00000
    147       1.6106      2.00000
    148       1.6106      2.00000
    149       1.7619      2.00000
    150       1.7619      2.00000
    151       1.7619      2.00000
    152       1.7619      2.00000
    153       1.9807      2.00000
    154       1.9807      2.00000
    155       1.9807      2.00000
    156       1.9807      2.00000
    157       2.1053      2.00000
    158       2.1053      2.00000
    159       2.1053      2.00000
    160       2.1053      2.00000
    161       2.2283      2.00000
    162       2.2283      2.00000
    163       2.2283      2.00000
    164       2.2283      2.00000
    165       2.2843      2.00000
    166       2.2843      2.00000
    167       2.3237      2.00000
    168       2.3237      2.00000
    169       4.8258      0.00000
    170       4.8258      0.00000
    171       4.8636      0.00000
    172       4.8636      0.00000
    173       5.1053      0.00000
    174       5.1053      0.00000
    175       5.1053      0.00000
    176       5.1053      0.00000
    177       5.7328      0.00000
    178       5.7328      0.00000
    179       5.7328      0.00000
    180       5.7328      0.00000
    181       5.7419      0.00000
    182       5.7419      0.00000
    183       5.8146      0.00000
    184       5.8146      0.00000
    185       5.8146      0.00000
    186       5.8146      0.00000
    187       6.5510      0.00000
    188       6.5510      0.00000
    189       6.7791      0.00000
    190       6.7791      0.00000
    191       6.7791      0.00000
    192       6.7791      0.00000
    193       7.4148      0.00000
    194       7.4148      0.00000
    195       7.4148      0.00000
    196       7.4148      0.00000
    197       7.4914      0.00000
    198       7.4914      0.00000
    199       7.8596      0.00000
    200       7.8596      0.00000
    201       7.8596      0.00000
    202       7.8596      0.00000
    203       8.1693      0.00000
    204       8.1693      0.00000

 k-point     4 :       0.2500    0.2500    0.0000
  band No.  band energies     occupation 
      1     -10.0556      2.00000
      2      -9.8074      2.00000
      3      -9.8074      2.00000
      4      -9.6919      2.00000
      5      -9.5712      2.00000
      6      -9.4595      2.00000
      7      -9.4595      2.00000
      8      -9.2183      2.00000
      9      -9.0990      2.00000
     10      -9.0473      2.00000
     11      -9.0473      2.00000
     12      -9.0039      2.00000
     13      -8.9689      2.00000
     14      -8.9689      2.00000
     15      -8.9431      2.00000
     16      -8.9206      2.00000
     17      -8.9007      2.00000
     18      -8.8465      2.00000
     19      -8.8145      2.00000
     20      -8.8145      2.00000
     21      -8.7580      2.00000
     22      -8.7580      2.00000
     23      -8.7035      2.00000
     24      -8.6331      2.00000
     25      -8.6207      2.00000
     26      -8.5794      2.00000
     27      -8.5794      2.00000
     28      -8.5787      2.00000
     29      -8.5765      2.00000
     30      -8.5765      2.00000
     31      -8.5679      2.00000
     32      -8.5679      2.00000
     33      -4.9890      2.00000
     34      -4.9607      2.00000
     35      -4.9607      2.00000
     36      -4.9495      2.00000
     37      -4.9495      2.00000
     38      -4.9467      2.00000
     39      -4.8709      2.00000
     40      -4.8709      2.00000
     41      -4.8578      2.00000
     42      -4.8578      2.00000
     43      -4.8387      2.00000
     44      -4.8364      2.00000
     45      -4.8364      2.00000
     46      -4.8294      2.00000
     47      -4.8251      2.00000
     48      -4.8230      2.00000
     49      -4.8058      2.00000
     50      -4.8038      2.00000
     51      -4.8038      2.00000
     52      -4.8013      2.00000
     53      -4.7985      2.00000
     54      -4.7927      2.00000
     55      -4.7927      2.00000
     56      -4.7875      2.00000
     57      -4.7868      2.00000
     58      -4.7864      2.00000
     59      -4.7863      2.00000
     60      -4.7838      2.00000
     61      -4.7831      2.00000
     62      -4.7811      2.00000
     63      -4.7811      2.00000
     64      -4.7793      2.00000
     65      -4.7793      2.00000
     66      -4.7785      2.00000
     67      -4.7785      2.00000
     68      -4.7748      2.00000
     69      -4.7748      2.00000
     70      -4.7714      2.00000
     71      -4.7709      2.00000
     72      -4.7703      2.00000
     73      -2.7337      2.00000
     74      -2.6340      2.00000
     75      -2.4979      2.00000
     76      -2.4859      2.00000
     77      -2.4836      2.00000
     78      -2.4508      2.00000
     79      -2.4508      2.00000
     80      -2.3896      2.00000
     81      -2.3896      2.00000
     82      -2.3135      2.00000
     83      -1.9821      2.00000
     84      -1.9384      2.00000
     85      -1.9384      2.00000
     86      -1.8860      2.00000
     87      -1.8829      2.00000
     88      -1.8829      2.00000
     89      -1.5481      2.00000
     90      -1.3388      2.00000
     91      -1.3388      2.00000
     92      -0.8917      2.00000
     93      -0.8911      2.00000
     94      -0.8694      2.00000
     95      -0.8202      2.00000
     96      -0.5368      2.00000
     97      -0.5368      2.00000
     98      -0.4890      2.00000
     99      -0.4600      2.00000
    100      -0.4600      2.00000
    101      -0.4093      2.00000
    102      -0.3015      2.00000
    103      -0.3015      2.00000
    104      -0.2033      2.00000
    105      -0.1079      2.00000
    106      -0.1079      2.00000
    107      -0.0961      2.00000
    108      -0.0073      2.00000
    109      -0.0007      2.00000
    110      -0.0007      2.00000
    111       0.0868      2.00000
    112       0.0868      2.00000
    113       0.0956      2.00000
    114       0.3173      2.00000
    115       0.3357      2.00000
    116       0.3455      2.00000
    117       0.3946      2.00000
    118       0.3946      2.00000
    119       0.4071      2.00000
    120       0.6514      2.00000
    121       0.6514      2.00000
    122       0.6800      2.00000
    123       0.7949      2.00000
    124       0.7949      2.00000
    125       0.8221      2.00000
[...]


The static configuration has the point symmetry T_d .
 The point group associated with its full space group is O_h .


Analysis of symmetry for dynamics (positions and initial velocities):
=====================================================================
 Subroutine PRICEL returns following result:
 
  LATTYP: Found a face centered cubic cell.
 ALAT       =    11.0428522121
  
  Lattice vectors:
  
 A1 = (   5.5214261060,   5.5214261060,   0.0000000000)
 A2 = (   5.5214261060,   0.0000000000,  -5.5214261060)
 A3 = (   0.0000000000,   5.5214261060,  -5.5214261060)
 
   4 primitive cells build up your supercell.
 

 Routine SETGRP: Setting up the symmetry group for a 
 simple cubic supercell.


 Subroutine GETGRP returns: Found  8 space group operations
 (whereof  4 operations were pure point group operations)
 out of a pool of 48 trial point group operations.


The dynamic configuration has the point symmetry C_2v.
 The point group associated with its full space group is C_4v.


 Subroutine INISYM returns: Found  8 space group operations
 (whereof  4 operations are pure point group operations),
 and found     4 'primitive' translations



----------------------------------------- Iteration    2(   1)  ---------------------------------------


   POT+DIJ:  cpu time    0.1139: real time    0.1146
    HAMIL1:  cpu time    3.8837: real time    3.8939
    LRDIAG:  cpu time    0.5254: real time    0.5270
    LRDIIS:  cpu time   14.7488: real time   14.7904
    LRDIAG:  cpu time    0.5690: real time    0.5704
    --------------------------------------------
      LOOP:  cpu time   19.8410: real time   19.8966

 Free energy of the ion-electron system (eV)
  ---------------------------------------------------
  -Hartree energ DENC   =         0.00000000
  -V(xc)+E(xc)   XCENC  =         0.00000000
  PAW double counting   =         0.00000000        0.00000000
  entropy T*S    EENTRO =         0.00000000
  eigenvalues    EBANDS =       -23.81221511
  ---------------------------------------------------
  free energy    TOTEN  =       -23.81221511 eV

  energy without entropy =      -23.81221511


----------------------------------------- Iteration    2(   2)  ---------------------------------------


   POT+DIJ:  cpu time    0.1144: real time    0.1147
    HAMIL1:  cpu time    3.8603: real time    3.8712
    LRDIAG:  cpu time    0.5295: real time    0.5311
    LRDIIS:  cpu time   12.1865: real time   12.2207
    LRDIAG:  cpu time    0.5725: real time    0.5743
    --------------------------------------------
      LOOP:  cpu time   17.2634: real time   17.3123

 Free energy of the ion-electron system (eV)
  ---------------------------------------------------
  -Hartree energ DENC   =         0.00000000
  -V(xc)+E(xc)   XCENC  =         0.00000000
  PAW double counting   =         0.00000000        0.00000000
  entropy T*S    EENTRO =         0.00000000
  eigenvalues    EBANDS =       -25.91326662
  ---------------------------------------------------
  free energy    TOTEN  =       -25.91326662 eV

  energy without entropy =      -25.91326662


----------------------------------------- Iteration    2(   3)  ---------------------------------------


   POT+DIJ:  cpu time    0.1142: real time    0.1145
    HAMIL1:  cpu time    3.9435: real time    3.9543
    LRDIAG:  cpu time    0.5302: real time    0.5315
    LRDIIS:  cpu time   12.4282: real time   12.4633
    LRDIAG:  cpu time    0.5244: real time    0.5257
    --------------------------------------------
      LOOP:  cpu time   17.5407: real time   17.5895

 Free energy of the ion-electron system (eV)
  ---------------------------------------------------
  -Hartree energ DENC   =         0.00000000
  -V(xc)+E(xc)   XCENC  =         0.00000000
  PAW double counting   =         0.00000000        0.00000000
  entropy T*S    EENTRO =         0.00000000
  eigenvalues    EBANDS =       -25.94580022
  ---------------------------------------------------
  free energy    TOTEN  =       -25.94580022 eV

  energy without entropy =      -25.94580022


----------------------------------------- Iteration    2(   4)  ---------------------------------------


   POT+DIJ:  cpu time    0.1144: real time    0.1147
    HAMIL1:  cpu time    3.9417: real time    3.9528
    LRDIAG:  cpu time    0.5293: real time    0.5306
    LRDIIS:  cpu time   10.4154: real time   10.4443
    LRDIAG:  cpu time    0.5227: real time    0.5240
    --------------------------------------------
      LOOP:  cpu time   15.5237: real time   15.5665

 Free energy of the ion-electron system (eV)
  ---------------------------------------------------
  -Hartree energ DENC   =         0.00000000
  -V(xc)+E(xc)   XCENC  =         0.00000000
  PAW double counting   =         0.00000000        0.00000000
  entropy T*S    EENTRO =         0.00000000
  eigenvalues    EBANDS =       -25.94693125
  ---------------------------------------------------
  free energy    TOTEN  =       -25.94693125 eV

  energy without entropy =      -25.94693125


----------------------------------------- Iteration    2(   5)  ---------------------------------------


   POT+DIJ:  cpu time    0.1142: real time    0.1144
    HAMIL1:  cpu time    3.8756: real time    3.8866
    LRDIAG:  cpu time    0.5268: real time    0.5281
    LRDIIS:  cpu time    8.6513: real time    8.6754
    LRDIAG:  cpu time    0.5227: real time    0.5244
    --------------------------------------------
      LOOP:  cpu time   13.6908: real time   13.7291

 Free energy of the ion-electron system (eV)
  ---------------------------------------------------
  -Hartree energ DENC   =         0.00000000
  -V(xc)+E(xc)   XCENC  =         0.00000000
  PAW double counting   =         0.00000000        0.00000000
  entropy T*S    EENTRO =         0.00000000
  eigenvalues    EBANDS =       -25.94696816
  ---------------------------------------------------
  free energy    TOTEN  =       -25.94696816 eV

  energy without entropy =      -25.94696816


------------------------ aborting loop because EDIFF is reached ----------------------------------------


 change of polarisation eV/A/(eV/A) component  2 :    -2.849    51.895    -1.665
 dielectric tensor                  component  2 :    -0.383     7.973    -0.224


--------------------------------------------------------------------------------------------------------


 Linear response to external field (no local field effect), progress :
  Direction:   3
  LATTYP: Found a simple cubic cell.
 ALAT       =    11.0428522121
  
  Lattice vectors:
  
 A1 = (  11.0428522121,   0.0000000000,   0.0000000000)
 A2 = (   0.0000000000,  11.0428522121,   0.0000000000)
 A3 = (   0.0000000000,   0.0000000000,  11.0428522121)


Analysis of symmetry for initial positions (statically):
=====================================================================
 Subroutine PRICEL returns following result:
 
  LATTYP: Found a face centered cubic cell.
 ALAT       =    11.0428522121
  
  Lattice vectors:
  
 A1 = (   5.5214261060,   5.5214261060,   0.0000000000)
 A2 = (   5.5214261060,   0.0000000000,  -5.5214261060)
 A3 = (   0.0000000000,   5.5214261060,  -5.5214261060)
 
   4 primitive cells build up your supercell.
 

 Routine SETGRP: Setting up the symmetry group for a 
 simple cubic supercell.


 Subroutine GETGRP returns: Found 48 space group operations
 (whereof 24 operations were pure point group operations)
 out of a pool of 48 trial point group operations.


The static configuration has the point symmetry T_d .
 The point group associated with its full space group is O_h .


Analysis of symmetry for dynamics (positions and initial velocities):
=====================================================================
 Subroutine PRICEL returns following result:
 
  LATTYP: Found a face centered cubic cell.
 ALAT       =    11.0428522121
  
  Lattice vectors:
  
 A1 = (   5.5214261060,   5.5214261060,   0.0000000000)
 A2 = (   5.5214261060,   0.0000000000,  -5.5214261060)
 A3 = (   0.0000000000,   5.5214261060,  -5.5214261060)
 
   4 primitive cells build up your supercell.
 

 Routine SETGRP: Setting up the symmetry group for a 
 simple cubic supercell.


 Subroutine GETGRP returns: Found  8 space group operations
 (whereof  4 operations were pure point group operations)
 out of a pool of 48 trial point group operations.


The dynamic configuration has the point symmetry C_2v.
 The point group associated with its full space group is C_4v.


 Subroutine INISYM returns: Found  8 space group operations
 (whereof  4 operations are pure point group operations),
 and found     4 'primitive' translations



----------------------------------------- Iteration    3(   1)  ---------------------------------------


   POT+DIJ:  cpu time    0.1142: real time    0.1145
    HAMIL1:  cpu time    3.8439: real time    3.8547
    LRDIAG:  cpu time    0.5253: real time    0.5266
    LRDIIS:  cpu time   14.6474: real time   14.6884
    LRDIAG:  cpu time    0.5695: real time    0.5713
    --------------------------------------------
      LOOP:  cpu time   19.7005: real time   19.7558

 Free energy of the ion-electron system (eV)
  ---------------------------------------------------
  -Hartree energ DENC   =         0.00000000
  -V(xc)+E(xc)   XCENC  =         0.00000000
  PAW double counting   =         0.00000000        0.00000000
  entropy T*S    EENTRO =         0.00000000
  eigenvalues    EBANDS =       -22.81146661
  ---------------------------------------------------
  free energy    TOTEN  =       -22.81146661 eV

  energy without entropy =      -22.81146661


----------------------------------------- Iteration    3(   2)  ---------------------------------------


   POT+DIJ:  cpu time    0.1143: real time    0.1146
    HAMIL1:  cpu time    3.8766: real time    3.8872
    LRDIAG:  cpu time    0.5294: real time    0.5307
    LRDIIS:  cpu time   12.1321: real time   12.1655
    LRDIAG:  cpu time    0.5701: real time    0.5719
    --------------------------------------------
      LOOP:  cpu time   17.2227: real time   17.2700

 Free energy of the ion-electron system (eV)
  ---------------------------------------------------
  -Hartree energ DENC   =         0.00000000
  -V(xc)+E(xc)   XCENC  =         0.00000000
  PAW double counting   =         0.00000000        0.00000000
  entropy T*S    EENTRO =         0.00000000
  eigenvalues    EBANDS =       -24.53296835
  ---------------------------------------------------
  free energy    TOTEN  =       -24.53296835 eV

  energy without entropy =      -24.53296835


----------------------------------------- Iteration    3(   3)  ---------------------------------------


   POT+DIJ:  cpu time    0.1143: real time    0.1145
    HAMIL1:  cpu time    3.8520: real time    3.8622
    LRDIAG:  cpu time    0.5298: real time    0.5315
    LRDIIS:  cpu time   12.4056: real time   12.4400
    LRDIAG:  cpu time    0.5250: real time    0.5263
    --------------------------------------------
      LOOP:  cpu time   17.4267: real time   17.4747

 Free energy of the ion-electron system (eV)
  ---------------------------------------------------
  -Hartree energ DENC   =         0.00000000
  -V(xc)+E(xc)   XCENC  =         0.00000000
  PAW double counting   =         0.00000000        0.00000000
  entropy T*S    EENTRO =         0.00000000
  eigenvalues    EBANDS =       -24.56037768
  ---------------------------------------------------
  free energy    TOTEN  =       -24.56037768 eV

  energy without entropy =      -24.56037768


----------------------------------------- Iteration    3(   4)  ---------------------------------------


   POT+DIJ:  cpu time    0.1142: real time    0.1148
    HAMIL1:  cpu time    3.8895: real time    3.9001
    LRDIAG:  cpu time    0.5264: real time    0.5280
    LRDIIS:  cpu time   10.5570: real time   10.5866
    LRDIAG:  cpu time    0.5227: real time    0.5239
    --------------------------------------------
      LOOP:  cpu time   15.6099: real time   15.6536

 Free energy of the ion-electron system (eV)
  ---------------------------------------------------
  -Hartree energ DENC   =         0.00000000
  -V(xc)+E(xc)   XCENC  =         0.00000000
  PAW double counting   =         0.00000000        0.00000000
  entropy T*S    EENTRO =         0.00000000
  eigenvalues    EBANDS =       -24.56127262
  ---------------------------------------------------
  free energy    TOTEN  =       -24.56127262 eV

  energy without entropy =      -24.56127262


----------------------------------------- Iteration    3(   5)  ---------------------------------------


   POT+DIJ:  cpu time    0.1142: real time    0.1144
    HAMIL1:  cpu time    3.8379: real time    3.8484
    LRDIAG:  cpu time    0.5273: real time    0.5290
    LRDIIS:  cpu time    8.6017: real time    8.6256
    LRDIAG:  cpu time    0.5222: real time    0.5239
    --------------------------------------------
      LOOP:  cpu time   13.6035: real time   13.6416

 Free energy of the ion-electron system (eV)
  ---------------------------------------------------
  -Hartree energ DENC   =         0.00000000
  -V(xc)+E(xc)   XCENC  =         0.00000000
  PAW double counting   =         0.00000000        0.00000000
  entropy T*S    EENTRO =         0.00000000
  eigenvalues    EBANDS =       -24.56130300
  ---------------------------------------------------
  free energy    TOTEN  =       -24.56130300 eV

  energy without entropy =      -24.56130300


------------------------ aborting loop because EDIFF is reached ----------------------------------------


 change of polarisation eV/A/(eV/A) component  3 :    -0.823    -1.665    49.123
 dielectric tensor                  component  3 :    -0.111    -0.224     7.601


--------------------------------------------------------------------------------------------------------


  LATTYP: Found a simple cubic cell.
 ALAT       =    11.0428522121
  
  Lattice vectors:
  
 A1 = (  11.0428522121,   0.0000000000,   0.0000000000)
 A2 = (   0.0000000000,  11.0428522121,   0.0000000000)
 A3 = (   0.0000000000,   0.0000000000,  11.0428522121)


Analysis of symmetry for initial positions (statically):
=====================================================================
 Subroutine PRICEL returns following result:
 
  LATTYP: Found a face centered cubic cell.
 ALAT       =    11.0428522121
  
  Lattice vectors:
  
 A1 = (   5.5214261060,   5.5214261060,   0.0000000000)
 A2 = (   5.5214261060,   0.0000000000,  -5.5214261060)
 A3 = (   0.0000000000,   5.5214261060,  -5.5214261060)
 
   4 primitive cells build up your supercell.
 

 Routine SETGRP: Setting up the symmetry group for a 
 simple cubic supercell.


 Subroutine GETGRP returns: Found 48 space group operations
 (whereof 24 operations were pure point group operations)
 out of a pool of 48 trial point group operations.


The static configuration has the point symmetry T_d .
 The point group associated with its full space group is O_h .


Analysis of symmetry for dynamics (positions and initial velocities):
=====================================================================
 Subroutine PRICEL returns following result:
 
  LATTYP: Found a face centered cubic cell.
 ALAT       =    11.0428522121
  
  Lattice vectors:
  
 A1 = (   5.5214261060,   5.5214261060,   0.0000000000)
 A2 = (   5.5214261060,   0.0000000000,  -5.5214261060)
 A3 = (   0.0000000000,   5.5214261060,  -5.5214261060)
 
   4 primitive cells build up your supercell.
 

 Routine SETGRP: Setting up the symmetry group for a 
 simple cubic supercell.


 Subroutine GETGRP returns: Found 48 space group operations
 (whereof 24 operations were pure point group operations)
 out of a pool of 48 trial point group operations.


The dynamic configuration has the point symmetry T_d .
 The point group associated with its full space group is O_h .


 Subroutine INISYM returns: Found 48 space group operations
 (whereof 24 operations are pure point group operations),
 and found     4 'primitive' translations



 HEAD OF MICROSCOPIC STATIC DIELECTRIC TENSOR (INDEPENDENT PARTICLE, excluding Hartree and local field effects)
 ------------------------------------------------------
           7.717634     0.000000     0.000000
           0.000000     7.717634     0.000000
          -0.000000    -0.000000     7.717634
 ------------------------------------------------------



--------------------------------------------------------------------------------------------------------


 Linear response to external field, progress :
  Direction:   1
  LATTYP: Found a simple cubic cell.
 ALAT       =    11.0428522121
  
  Lattice vectors:
  
 A1 = (  11.0428522121,   0.0000000000,   0.0000000000)
 A2 = (   0.0000000000,  11.0428522121,   0.0000000000)
 A3 = (   0.0000000000,   0.0000000000,  11.0428522121)


Analysis of symmetry for initial positions (statically):
=====================================================================
 Subroutine PRICEL returns following result:
 
  LATTYP: Found a face centered cubic cell.
 ALAT       =    11.0428522121
  
  Lattice vectors:
  
 A1 = (   5.5214261060,   5.5214261060,   0.0000000000)
 A2 = (   5.5214261060,   0.0000000000,  -5.5214261060)
 A3 = (   0.0000000000,   5.5214261060,  -5.5214261060)
 
   4 primitive cells build up your supercell.
 

 Routine SETGRP: Setting up the symmetry group for a 
 simple cubic supercell.


 Subroutine GETGRP returns: Found 48 space group operations
 (whereof 24 operations were pure point group operations)
 out of a pool of 48 trial point group operations.


The static configuration has the point symmetry T_d .
 The point group associated with its full space group is O_h .


Analysis of symmetry for dynamics (positions and initial velocities):
=====================================================================
 Subroutine PRICEL returns following result:
 
  LATTYP: Found a face centered cubic cell.
 ALAT       =    11.0428522121
  
  Lattice vectors:
  
 A1 = (   5.5214261060,   5.5214261060,   0.0000000000)
 A2 = (   5.5214261060,   0.0000000000,  -5.5214261060)
 A3 = (   0.0000000000,   5.5214261060,  -5.5214261060)
 
   4 primitive cells build up your supercell.
 

 Routine SETGRP: Setting up the symmetry group for a 
 simple cubic supercell.


 Subroutine GETGRP returns: Found  8 space group operations
 (whereof  4 operations were pure point group operations)
 out of a pool of 48 trial point group operations.


The dynamic configuration has the point symmetry C_2v.
 The point group associated with its full space group is C_4v.


 Subroutine INISYM returns: Found  8 space group operations
 (whereof  4 operations are pure point group operations),
 and found     4 'primitive' translations


 ----------------------------------------------------------------------------- 
|                                                                             |
|     EEEEEEE  RRRRRR   RRRRRR   OOOOOOO  RRRRRR      ###     ###     ###     |
|     E        R     R  R     R  O     O  R     R     ###     ###     ###     |
|     E        R     R  R     R  O     O  R     R     ###     ###     ###     |
|     EEEEE    RRRRRR   RRRRRR   O     O  RRRRRR       #       #       #      |
|     E        R   R    R   R    O     O  R   R                               |
|     E        R    R   R    R   O     O  R    R      ###     ###     ###     |
|     EEEEEEE  R     R  R     R  OOOOOOO  R     R     ###     ###     ###     |
|                                                                             |
|      VASP internal routines  have requested a change of the k-point set.    |
|      Unfortunately this is only possible if NPAR=number of nodes.           |
|      Please remove the tag NPAR from the INCAR file and restart the         |
|      calculations.                                                          |
|                                                                             |
 ----------------------------------------------------------------------------- 

