 vasp.5.4.4.18Apr17-6-g9f103f2a35 (build Nov 15 2018 17:56:05) complex          
  
 executed on             LinuxIFC date 2021.08.16  11:46:30
 running on   36 total cores
 distrk:  each k-point on   36 cores,    1 groups
 distr:  one band on NCORES_PER_BAND=   1 cores,   36 groups


--------------------------------------------------------------------------------------------------------


 INCAR:
 POTCAR:    PAW_PBE Cd 06Sep2000                  
 POTCAR:    PAW_PBE In 08Apr2002                  
 POTCAR:    PAW_PBE S 06Sep2000                   

 ----------------------------------------------------------------------------- 
|                                                                             |
|           W    W    AA    RRRRR   N    N  II  N    N   GGGG   !!!           |
|           W    W   A  A   R    R  NN   N  II  NN   N  G    G  !!!           |
|           W    W  A    A  R    R  N N  N  II  N N  N  G       !!!           |
|           W WW W  AAAAAA  RRRRR   N  N N  II  N  N N  G  GGG   !            |
|           WW  WW  A    A  R   R   N   NN  II  N   NN  G    G                |
|           W    W  A    A  R    R  N    N  II  N    N   GGGG   !!!           |
|                                                                             |
|      For optimal performance we recommend to set                            |
|        NCORE= 4 - approx SQRT( number of cores)                             |
|      NCORE specifies how many cores store one orbital (NPAR=cpu/NCORE).     |
|      This setting can  greatly improve the performance of VASP for DFT.     |
|      The default,   NCORE=1            might be grossly inefficient         |
|      on modern multi-core architectures or massively parallel machines.     |
|      Do your own testing !!!!                                               |
|      Unfortunately you need to use the default for GW and RPA calculations. |
|      (for HF NCORE is supported but not extensively tested yet)             |
|                                                                             |
 ----------------------------------------------------------------------------- 

 POTCAR:    PAW_PBE Cd 06Sep2000                  
   VRHFIN =Cd : s2 d10                                                          
   LEXCH  = PE                                                                  
   EATOM  =  1293.1815 eV,   95.0462 Ry                                         
                                                                                
   TITEL  = PAW_PBE Cd 06Sep2000                                                
   LULTRA =        F    use ultrasoft PP ?                                      
   IUNSCR =        1    unscreen: 0-lin 1-nonlin 2-no                           
   RPACOR =    2.000    partial core radius                                     
   POMASS =  112.411; ZVAL   =   12.000    mass and valenz                      
   RCORE  =    2.300    outmost cutoff radius                                   
   RWIGS  =    2.980; RWIGS  =    1.577    wigner-seitz radius (au A)           
   ENMAX  =  274.336; ENMIN  =  205.752 eV                                      
   RCLOC  =    2.054    cutoff for local pot                                    
   LCOR   =        T    correct aug charges                                     
   LPAW   =        T    paw PP                                                  
   EAUG   =  456.106                                                            
   DEXC   =    0.000                                                            
   RMAX   =    2.358    core radius for proj-oper                               
   RAUG   =    1.300    factor for augmentation sphere                          
   RDEP   =    2.450    radius for radial grids                                 
   RDEPT  =    1.955    core radius for aug-charge                              
                                                                                
   Atomic configuration                                                         
   12 entries                                                                   
     n  l   j            E        occ.                                          
     1  0  0.50    -26519.7817   2.0000                                         
     2  0  0.50     -3936.9612   2.0000                                         
     2  1  1.50     -3532.2230   6.0000                                         
     3  0  0.50      -733.7908   2.0000                                         
     3  1  1.50      -601.0792   6.0000                                         
     3  2  2.50      -393.5307  10.0000                                         
     4  0  0.50      -105.8977   2.0000                                         
     4  1  1.50       -66.9488   6.0000                                         
     4  2  2.50       -11.7331  10.0000                                         
     5  0  0.50        -5.6592   2.0000                                         
     5  1  0.50        -1.3606   0.0000                                         
     4  3  2.50        -1.3606   0.0000                                         
   Description                                                                  
     l       E           TYP  RCUT    TYP  RCUT                                 
     2    -11.7331479     23  2.300                                             
     2    -13.0937305     23  2.300                                             
     0     -5.6591502     23  2.300                                             
     0     -1.5561433     23  2.300                                             
     1     -2.7211652     23  2.300                                             
     1      8.3548275     23  2.300                                             
  local pseudopotential read in
  partial core-charges read in
  partial kinetic energy density read in
  atomic valenz-charges read in
  non local Contribution for L=           2  read in
    real space projection operators read in
  non local Contribution for L=           2  read in
    real space projection operators read in
  non local Contribution for L=           0  read in
    real space projection operators read in
  non local Contribution for L=           0  read in
    real space projection operators read in
  non local Contribution for L=           1  read in
    real space projection operators read in
  non local Contribution for L=           1  read in
    real space projection operators read in
    PAW grid and wavefunctions read in
 
   number of l-projection  operators is LMAX  =           6
   number of lm-projection operators is LMMAX =          18
 
 POTCAR:    PAW_PBE In 08Apr2002                  
   VRHFIN =In: s2p1                                                             
   LEXCH  = PE                                                                  
   EATOM  =    53.7908 eV,    3.9535 Ry                                         
                                                                                
   TITEL  = PAW_PBE In 08Apr2002                                                
   LULTRA =        F    use ultrasoft PP ?                                      
   IUNSCR =        1    unscreen: 0-lin 1-nonlin 2-no                           
   RPACOR =    2.400    partial core radius                                     
   POMASS =  114.820; ZVAL   =    3.000    mass and valenz                      
   RCORE  =    3.100    outmost cutoff radius                                   
   RWIGS  =    3.170; RWIGS  =    1.677    wigner-seitz radius (au A)           
   ENMAX  =   95.934; ENMIN  =   71.951 eV                                      
   ICORE  =        3    local potential                                         
   LCOR   =        T    correct aug charges                                     
   LPAW   =        T    paw PP                                                  
   EAUG   =  237.125                                                            
   DEXC   =    0.000                                                            
   RMAX   =    3.168    core radius for proj-oper                               
   RAUG   =    1.300    factor for augmentation sphere                          
   RDEP   =    3.187    radius for radial grids                                 
   RDEPT  =    2.711    core radius for aug-charge                              
                                                                                
   Atomic configuration                                                         
   13 entries                                                                   
     n  l   j            E        occ.                                          
     1  0  0.50    -27747.9169   2.0000                                         
     2  0  0.50     -4154.4438   2.0000                                         
     2  1  1.50     -3728.4305   6.0000                                         
     3  0  0.50      -788.3680   2.0000                                         
     3  1  1.50      -648.9215   6.0000                                         
     3  2  2.50      -432.5893  10.0000                                         
     4  0  0.50      -119.6363   2.0000                                         
     4  1  1.50       -78.1086   6.0000                                         
     4  2  2.50       -18.6227  10.0000                                         
     5  0  0.50        -8.2107   2.0000                                         
     5  1  0.50        -2.5185   1.0000                                         
     5  2  2.50        -1.3606   0.0000                                         
     4  3  2.50        -2.7212   0.0000                                         
   Description                                                                  
     l       E           TYP  RCUT    TYP  RCUT                                 
     0     -8.2107306     23  3.100                                             
     0     -6.1485975     23  3.100                                             
     1     -2.5184867     23  3.100                                             
     1      3.2427302     23  3.100                                             
     2     -1.3605826     23  3.100                                             
     3     -1.3605826     23  3.100                                             
  local pseudopotential read in
  partial core-charges read in
  partial kinetic energy density read in
  atomic valenz-charges read in
  non local Contribution for L=           0  read in
    real space projection operators read in
  non local Contribution for L=           0  read in
    real space projection operators read in
  non local Contribution for L=           1  read in
    real space projection operators read in
  non local Contribution for L=           1  read in
    real space projection operators read in
  non local Contribution for L=           2  read in
    real space projection operators read in
    PAW grid and wavefunctions read in
 
   number of l-projection  operators is LMAX  =           5
   number of lm-projection operators is LMMAX =          13
 
 POTCAR:    PAW_PBE S 06Sep2000                   
   VRHFIN =S : s2p4                                                             
   LEXCH  = PE                                                                  
   EATOM  =   276.8230 eV,   20.3459 Ry                                         
                                                                                
   TITEL  = PAW_PBE S 06Sep2000                                                 
   LULTRA =        F    use ultrasoft PP ?                                      
   IUNSCR =        1    unscreen: 0-lin 1-nonlin 2-no                           
   RPACOR =    1.500    partial core radius                                     
   POMASS =   32.066; ZVAL   =    6.000    mass and valenz                      
   RCORE  =    1.900    outmost cutoff radius                                   
   RWIGS  =    2.200; RWIGS  =    1.164    wigner-seitz radius (au A)           
   ENMAX  =  258.689; ENMIN  =  194.016 eV                                      
   ICORE  =        2    local potential                                         
   LCOR   =        T    correct aug charges                                     
   LPAW   =        T    paw PP                                                  
   EAUG   =  335.092                                                            
   DEXC   =    0.000                                                            
   RMAX   =    1.942    core radius for proj-oper                               
   RAUG   =    1.300    factor for augmentation sphere                          
   RDEP   =    1.954    radius for radial grids                                 
   RDEPT  =    1.744    core radius for aug-charge                              
                                                                                
   Atomic configuration                                                         
    6 entries                                                                   
     n  l   j            E        occ.                                          
     1  0  0.50     -2405.8406   2.0000                                         
     2  0  0.50      -211.7007   2.0000                                         
     2  1  1.50      -156.4958   6.0000                                         
     3  0  0.50       -17.2562   2.0000                                         
     3  1  0.50        -7.0085   4.0000                                         
     3  2  1.50        -6.8029   0.0000                                         
   Description                                                                  
     l       E           TYP  RCUT    TYP  RCUT                                 
     0    -17.2561641     23  1.900                                             
     0    -15.8743224     23  1.900                                             
     1     -7.0085400     23  1.900                                             
     1     -2.7779785     23  1.900                                             
     2     -6.8029130     23  1.900                                             
  local pseudopotential read in
  partial core-charges read in
  partial kinetic energy density read in
  atomic valenz-charges read in
  non local Contribution for L=           0  read in
    real space projection operators read in
  non local Contribution for L=           0  read in
    real space projection operators read in
  non local Contribution for L=           1  read in
    real space projection operators read in
  non local Contribution for L=           1  read in
    real space projection operators read in
    PAW grid and wavefunctions read in
 
   number of l-projection  operators is LMAX  =           4
   number of lm-projection operators is LMMAX =           8
 

 ----------------------------------------------------------------------------- 
|                                                                             |
|  ADVICE TO THIS USER RUNNING 'VASP/VAMP'   (HEAR YOUR MASTER'S VOICE ...):  |
|                                                                             |
|      You have a (more or less) 'large supercell' and for larger cells       |
|      it might be more efficient to use real space projection opertators     |
|      So try LREAL= Auto  in the INCAR   file.                               |
|      Mind:          For very  accurate calculation you might also keep the  |
|      reciprocal projection scheme          (i.e. LREAL=.FALSE.)             |
|                                                                             |
 ----------------------------------------------------------------------------- 

 WARNING: PSMAXN for non-local potential too small
          PSMAXN should be >   12.5490833729506       NTYP=           2

 ----------------------------------------------------------------------------- 
|                                                                             |
|  ADVICE TO THIS USER RUNNING 'VASP/VAMP'   (HEAR YOUR MASTER'S VOICE ...):  |
|                                                                             |
|      You enforced a specific xc-type in the INCAR file,                     |
|      a different type was found on the POTCAR file                          |
|          I HOPE YOU KNOW, WHAT YOU ARE  DOING                               |
|                                                                             |
 ----------------------------------------------------------------------------- 

  PAW_PBE Cd 06Sep2000                  :
 energy of atom  1       EATOM=-1293.1815
 kinetic energy error for atom=    0.0041 (will be added to EATOM!!)
  PAW_PBE In 08Apr2002                  :
 energy of atom  2       EATOM=  -53.7908
 kinetic energy error for atom=    0.0000 (will be added to EATOM!!)
  PAW_PBE S 06Sep2000                   :
 energy of atom  3       EATOM= -276.8230
 kinetic energy error for atom=    0.0009 (will be added to EATOM!!)
 
 
 POSCAR: CdIn2S4                                 
  positions in direct lattice
  velocities in cartesian coordinates
  No initial velocities read in
 exchange correlation table for  LEXCH =       14
   RHO(1)=    0.500       N(1)  =     2000
   RHO(2)=  100.500       N(2)  =     4000
 


--------------------------------------------------------------------------------------------------------


 ion  position               nearest neighbor table
   1  0.000  0.000  0.000-  42 2.57  46 2.57  52 2.57  30 2.57
   2  0.000  0.500  0.500-  29 2.57  34 2.57  43 2.57  53 2.57
   3  0.500  0.500  0.000-  31 2.57  35 2.57  56 2.57  45 2.57
   4  0.500  0.000  0.500-  32 2.57  33 2.57  51 2.57  44 2.57
   5  0.750  0.250  0.750-  26 2.57  38 2.57  48 2.57  49 2.57
   6  0.250  0.250  0.250-  25 2.57  41 2.57  47 2.57  54 2.57
   7  0.250  0.750  0.750-  27 2.57  36 2.57  39 2.57  50 2.57
   8  0.750  0.750  0.250-  28 2.57  37 2.57  40 2.57  55 2.57
   9  0.625  0.625  0.625-  44 2.65  45 2.65  53 2.65  48 2.65  50 2.65  40 2.65  17 3.90  18 3.90
                            19 3.90  20 3.90  22 3.90  23 3.90
  10  0.375  0.875  0.125-  35 2.65  37 2.65  39 2.65  54 2.65  51 2.65  46 2.65  14 3.90  15 3.90
                            16 3.90  20 3.90  21 3.90  23 3.90
  11  0.875  0.125  0.375-  33 2.65  38 2.65  55 2.65  47 2.65  52 2.65  43 2.65  13 3.90  15 3.90
                            16 3.90  19 3.90  22 3.90  24 3.90
  12  0.125  0.375  0.875-  34 2.65  36 2.65  49 2.65  41 2.65  42 2.65  56 2.65  13 3.90  14 3.90
                            17 3.90  18 3.90  21 3.90  24 3.90
  13  0.875  0.375  0.125-  31 2.65  28 2.65  49 2.65  41 2.65  43 2.65  52 2.65  11 3.90  12 3.90
                            16 3.90  18 3.90  21 3.90  22 3.90
  14  0.375  0.125  0.875-  32 2.65  26 2.65  39 2.65  54 2.65  42 2.65  56 2.65  10 3.90  12 3.90
                            16 3.90  17 3.90  23 3.90  24 3.90
  15  0.125  0.875  0.375-  29 2.65  27 2.65  55 2.65  47 2.65  51 2.65  46 2.65  10 3.90  11 3.90
                            19 3.90  20 3.90  21 3.90  24 3.90
  16  0.625  0.125  0.125-  52 2.65  37 2.65  26 2.65  54 2.65  33 2.65  31 2.65  10 3.90  11 3.90
                            13 3.90  14 3.90  22 3.90  23 3.90
  17  0.375  0.375  0.625-  56 2.65  50 2.65  48 2.65  25 2.65  34 2.65  32 2.65   9 3.90  12 3.90
                            14 3.90  20 3.90  22 3.90  24 3.90
  18  0.875  0.625  0.875-  30 2.65  45 2.65  53 2.65  28 2.65  49 2.65  36 2.65   9 3.90  12 3.90
                            13 3.90  19 3.90  21 3.90  23 3.90
  19  0.875  0.875  0.625-  30 2.65  44 2.65  53 2.65  27 2.65  38 2.65  55 2.65   9 3.90  11 3.90
                            15 3.90  18 3.90  23 3.90  24 3.90
  20  0.375  0.625  0.375-  51 2.65  50 2.65  40 2.65  25 2.65  35 2.65  29 2.65   9 3.90  10 3.90
                            15 3.90  17 3.90  21 3.90  22 3.90
  21  0.125  0.625  0.125-  46 2.65  36 2.65  28 2.65  41 2.65  35 2.65  29 2.65  10 3.90  12 3.90
                            13 3.90  15 3.90  18 3.90  20 3.90
  22  0.625  0.375  0.375-  43 2.65  40 2.65  48 2.65  25 2.65  33 2.65  31 2.65   9 3.90  11 3.90
                            13 3.90  16 3.90  17 3.90  20 3.90
  23  0.625  0.875  0.875-  30 2.65  44 2.65  45 2.65  39 2.65  26 2.65  37 2.65   9 3.90  10 3.90
                            14 3.90  16 3.90  18 3.90  19 3.90
  24  0.125  0.125  0.625-  42 2.65  38 2.65  27 2.65  47 2.65  34 2.65  32 2.65  11 3.90  12 3.90
                            14 3.90  15 3.90  17 3.90  19 3.90
  25  0.385  0.385  0.385-   6 2.57  17 2.65  20 2.65  22 2.65
  26  0.615  0.115  0.885-   5 2.57  14 2.65  16 2.65  23 2.65
  27  0.115  0.885  0.615-   7 2.57  15 2.65  24 2.65  19 2.65
  28  0.885  0.615  0.115-   8 2.57  13 2.65  21 2.65  18 2.65
  29  0.135  0.635  0.365-   2 2.57  15 2.65  20 2.65  21 2.65
  30  0.865  0.865  0.865-   1 2.57  18 2.65  19 2.65  23 2.65
  31  0.635  0.365  0.135-   3 2.57  13 2.65  16 2.65  22 2.65
  32  0.365  0.135  0.635-   4 2.57  14 2.65  17 2.65  24 2.65
  33  0.635  0.135  0.365-   4 2.57  11 2.65  16 2.65  22 2.65
  34  0.135  0.365  0.635-   2 2.57  12 2.65  17 2.65  24 2.65
  35  0.365  0.635  0.135-   3 2.57  10 2.65  20 2.65  21 2.65
  36  0.115  0.615  0.885-   7 2.57  12 2.65  21 2.65  18 2.65
  37  0.615  0.885  0.115-   8 2.57  10 2.65  16 2.65  23 2.65
  38  0.885  0.115  0.615-   5 2.57  11 2.65  24 2.65  19 2.65
  39  0.385  0.885  0.885-   7 2.57  10 2.65  14 2.65  23 2.65
  40  0.615  0.615  0.385-   8 2.57  20 2.65  22 2.65   9 2.65
  41  0.115  0.385  0.115-   6 2.57  12 2.65  13 2.65  21 2.65
  42  0.135  0.135  0.865-   1 2.57  24 2.65  14 2.65  12 2.65
  43  0.865  0.365  0.365-   2 2.57  22 2.65  13 2.65  11 2.65
  44  0.635  0.865  0.635-   4 2.57   9 2.65  19 2.65  23 2.65
  45  0.635  0.635  0.865-   3 2.57   9 2.65  18 2.65  23 2.65
  46  0.135  0.865  0.135-   1 2.57  21 2.65  15 2.65  10 2.65
  47  0.115  0.115  0.385-   6 2.57  11 2.65  15 2.65  24 2.65
  48  0.615  0.385  0.615-   5 2.57  17 2.65  22 2.65   9 2.65
  49  0.885  0.385  0.885-   5 2.57  12 2.65  13 2.65  18 2.65
  50  0.385  0.615  0.615-   7 2.57  17 2.65  20 2.65   9 2.65
  51  0.365  0.865  0.365-   4 2.57  20 2.65  15 2.65  10 2.65
  52  0.865  0.135  0.135-   1 2.57  16 2.65  13 2.65  11 2.65
  53  0.865  0.635  0.635-   2 2.57   9 2.65  18 2.65  19 2.65
  54  0.385  0.115  0.115-   6 2.57  10 2.65  14 2.65  16 2.65
  55  0.885  0.885  0.385-   8 2.57  11 2.65  15 2.65  19 2.65
  56  0.365  0.365  0.865-   3 2.57  17 2.65  14 2.65  12 2.65
 
  LATTYP: Found a simple cubic cell.
 ALAT       =    11.0223536920
  
  Lattice vectors:
  
 A1 = (  11.0223536920,   0.0000000000,   0.0000000000)
 A2 = (   0.0000000000,  11.0223536920,   0.0000000000)
 A3 = (   0.0000000000,   0.0000000000,  11.0223536920)


Analysis of symmetry for initial positions (statically):
=====================================================================
 Subroutine PRICEL returns following result:
 
  LATTYP: Found a face centered cubic cell.
 ALAT       =    11.0223536920
  
  Lattice vectors:
  
 A1 = (   5.5111768460,   5.5111768460,  -0.0000000000)
 A2 = (   5.5111768460,   0.0000000000,  -5.5111768460)
 A3 = (   0.0000000000,   5.5111768460,  -5.5111768460)
 
   4 primitive cells build up your supercell.
 

 Routine SETGRP: Setting up the symmetry group for a 
 simple cubic supercell.


 Subroutine GETGRP returns: Found 48 space group operations
 (whereof 24 operations were pure point group operations)
 out of a pool of 48 trial point group operations.


The static configuration has the point symmetry T_d .
 The point group associated with its full space group is O_h .


Analysis of symmetry for dynamics (positions and initial velocities):
=====================================================================
 Subroutine PRICEL returns following result:
 
  LATTYP: Found a face centered cubic cell.
 ALAT       =    11.0223536920
  
  Lattice vectors:
  
 A1 = (   5.5111768460,   5.5111768460,  -0.0000000000)
 A2 = (   5.5111768460,   0.0000000000,  -5.5111768460)
 A3 = (   0.0000000000,   5.5111768460,  -5.5111768460)
 
   4 primitive cells build up your supercell.
 

 Routine SETGRP: Setting up the symmetry group for a 
 simple cubic supercell.


 Subroutine GETGRP returns: Found 48 space group operations
 (whereof 24 operations were pure point group operations)
 out of a pool of 48 trial point group operations.


The dynamic configuration has the point symmetry T_d .
 The point group associated with its full space group is O_h .


 Subroutine INISYM returns: Found 48 space group operations
 (whereof 24 operations are pure point group operations),
 and found     4 'primitive' translations

 
 
 KPOINTS: k-points                                

Automatic generation of k-mesh.
Space group operators:
 irot       det(A)        alpha          n_x          n_y          n_z        tau_x        tau_y        tau_z
    1     1.000000     0.000000     1.000000     0.000000     0.000000     0.000000     0.000000     0.000000
    2     1.000000   120.000000    -0.577350    -0.577350    -0.577350     0.000000     0.000000     0.000000
    3     1.000000   120.000000     0.577350     0.577350     0.577350     0.000000     0.000000     0.000000
    4    -1.000000    90.000000     0.000000     0.000000    -1.000000     0.000000     0.000000     0.000000
    5    -1.000000   180.000000     0.000000     0.707107     0.707107     0.000000     0.000000     0.000000
    6    -1.000000    90.000000     0.000000     1.000000     0.000000     0.000000     0.000000     0.000000
    7     1.000000   179.999999     0.000000     0.000000     1.000000     0.000000     0.000000     0.000000
    8     1.000000   120.000000    -0.577350     0.577350     0.577350     0.000000     0.000000     0.000000
    9     1.000000   120.000000    -0.577350     0.577350    -0.577350     0.000000     0.000000     0.000000
   10    -1.000000    90.000000     0.000000     0.000000     1.000000     0.000000     0.000000     0.000000
   11    -1.000000    90.000000    -1.000000     0.000000     0.000000     0.000000     0.000000     0.000000
   12    -1.000000   180.000000     0.707107     0.000000     0.707107     0.000000     0.000000     0.000000
   13     1.000000   120.000000     0.577350    -0.577350     0.577350     0.000000     0.000000     0.000000
   14     1.000000   120.000000    -0.577350    -0.577350     0.577350     0.000000     0.000000     0.000000
   15     1.000000   180.000000     1.000000     0.000000     0.000000     0.000000     0.000000     0.000000
   16    -1.000000    90.000000     0.000000    -1.000000     0.000000     0.000000     0.000000     0.000000
   17    -1.000000   180.000000     0.707107     0.707107     0.000000     0.000000     0.000000     0.000000
   18    -1.000000    90.000000     1.000000     0.000000     0.000000     0.000000     0.000000     0.000000
   19     1.000000   120.000000     0.577350    -0.577350    -0.577350     0.000000     0.000000     0.000000
   20     1.000000   180.000000     0.000000     1.000000     0.000000     0.000000     0.000000     0.000000
   21     1.000000   120.000000     0.577350     0.577350    -0.577350     0.000000     0.000000     0.000000
   22    -1.000000   180.000000     0.000000    -0.707107     0.707107     0.000000     0.000000     0.000000
   23    -1.000000   180.000000     0.707107    -0.707107     0.000000     0.000000     0.000000     0.000000
   24    -1.000000   180.000000     0.707107     0.000000    -0.707107     0.000000     0.000000     0.000000
   25    -1.000000     0.000000     1.000000     0.000000     0.000000     0.750000     0.750000    -0.750000
   26    -1.000000   120.000000    -0.577350    -0.577350    -0.577350     0.750000     0.750000    -0.750000
   27    -1.000000   120.000000     0.577350     0.577350     0.577350     0.750000     0.750000    -0.750000
   28     1.000000    90.000000     0.000000     0.000000    -1.000000     0.750000     0.750000    -0.750000
   29     1.000000   180.000000     0.000000     0.707107     0.707107     0.750000     0.750000    -0.750000
   30     1.000000    90.000000     0.000000     1.000000     0.000000     0.750000     0.750000    -0.750000
   31    -1.000000   179.999999     0.000000     0.000000     1.000000     0.750000     0.750000    -0.750000
   32    -1.000000   120.000000    -0.577350     0.577350     0.577350     0.750000     0.750000    -0.750000
   33    -1.000000   120.000000    -0.577350     0.577350    -0.577350     0.750000     0.750000    -0.750000
   34     1.000000    90.000000     0.000000     0.000000     1.000000     0.750000     0.750000    -0.750000
   35     1.000000    90.000000    -1.000000     0.000000     0.000000     0.750000     0.750000    -0.750000
   36     1.000000   180.000000     0.707107     0.000000     0.707107     0.750000     0.750000    -0.750000
   37    -1.000000   120.000000     0.577350    -0.577350     0.577350     0.750000     0.750000    -0.750000
   38    -1.000000   120.000000    -0.577350    -0.577350     0.577350     0.750000     0.750000    -0.750000
   39    -1.000000   180.000000     1.000000     0.000000     0.000000     0.750000     0.750000    -0.750000
   40     1.000000    90.000000     0.000000    -1.000000     0.000000     0.750000     0.750000    -0.750000
   41     1.000000   180.000000     0.707107     0.707107     0.000000     0.750000     0.750000    -0.750000
   42     1.000000    90.000000     1.000000     0.000000     0.000000     0.750000     0.750000    -0.750000
   43    -1.000000   120.000000     0.577350    -0.577350    -0.577350     0.750000     0.750000    -0.750000
   44    -1.000000   180.000000     0.000000     1.000000     0.000000     0.750000     0.750000    -0.750000
   45    -1.000000   120.000000     0.577350     0.577350    -0.577350     0.750000     0.750000    -0.750000
   46     1.000000   180.000000     0.000000    -0.707107     0.707107     0.750000     0.750000    -0.750000
   47     1.000000   180.000000     0.707107    -0.707107     0.000000     0.750000     0.750000    -0.750000
   48     1.000000   180.000000     0.707107     0.000000    -0.707107     0.750000     0.750000    -0.750000
 
 Subroutine IBZKPT returns following result:
 ===========================================
 
 Found      4 irreducible k-points:
 
 Following reciprocal coordinates:
            Coordinates               Weight
  0.125000  0.125000  0.125000      8.000000
  0.375000  0.125000  0.125000     24.000000
  0.375000  0.375000  0.125000     24.000000
  0.375000  0.375000  0.375000      8.000000
 
 Following cartesian coordinates:
            Coordinates               Weight
  0.011341  0.011341  0.011341      8.000000
  0.034022  0.011341  0.011341     24.000000
  0.034022  0.034022  0.011341     24.000000
  0.034022  0.034022  0.034022      8.000000
 
 TETIRR: Found     20 inequivalent tetrahedra from      384
 
 Subroutine IBZKPT_HF returns following result:
 ==============================================
 
 Found     64 k-points in 1st BZ
 the following     64 k-points will be used (e.g. in the exchange kernel)
 Following reciprocal coordinates:   # in IRBZ
  0.125000  0.125000  0.125000    0.01562500   1 t-inv F
  0.375000  0.125000  0.125000    0.01562500   2 t-inv F
  0.375000  0.375000  0.125000    0.01562500   3 t-inv F
  0.375000  0.375000  0.375000    0.01562500   4 t-inv F
  0.125000 -0.125000 -0.125000    0.01562500   1 t-inv F
 -0.125000 -0.125000  0.125000    0.01562500   1 t-inv F
 -0.125000  0.125000 -0.125000    0.01562500   1 t-inv F
 -0.125000 -0.125000 -0.125000    0.01562500   1 t-inv F
 -0.125000  0.125000  0.125000    0.01562500   1 t-inv F
  0.125000  0.125000 -0.125000    0.01562500   1 t-inv F
  0.125000 -0.125000  0.125000    0.01562500   1 t-inv F
  0.125000  0.375000  0.125000    0.01562500   2 t-inv F
  0.125000  0.125000  0.375000    0.01562500   2 t-inv F
  0.125000 -0.375000 -0.125000    0.01562500   2 t-inv F
  0.375000 -0.125000 -0.125000    0.01562500   2 t-inv F
  0.125000 -0.125000 -0.375000    0.01562500   2 t-inv F
 -0.375000 -0.125000  0.125000    0.01562500   2 t-inv F
 -0.125000 -0.375000  0.125000    0.01562500   2 t-inv F
 -0.125000 -0.125000  0.375000    0.01562500   2 t-inv F
 -0.125000  0.375000 -0.125000    0.01562500   2 t-inv F
 -0.375000  0.125000 -0.125000    0.01562500   2 t-inv F
 -0.125000  0.125000 -0.375000    0.01562500   2 t-inv F
 -0.375000 -0.125000 -0.125000    0.01562500   2 t-inv F
 -0.125000 -0.375000 -0.125000    0.01562500   2 t-inv F
 -0.125000 -0.125000 -0.375000    0.01562500   2 t-inv F
 -0.125000  0.375000  0.125000    0.01562500   2 t-inv F
 -0.375000  0.125000  0.125000    0.01562500   2 t-inv F
 -0.125000  0.125000  0.375000    0.01562500   2 t-inv F
  0.375000  0.125000 -0.125000    0.01562500   2 t-inv F
  0.125000  0.375000 -0.125000    0.01562500   2 t-inv F
  0.125000  0.125000 -0.375000    0.01562500   2 t-inv F
  0.125000 -0.375000  0.125000    0.01562500   2 t-inv F
  0.375000 -0.125000  0.125000    0.01562500   2 t-inv F
  0.125000 -0.125000  0.375000    0.01562500   2 t-inv F
  0.125000  0.375000  0.375000    0.01562500   3 t-inv F
  0.375000  0.125000  0.375000    0.01562500   3 t-inv F
  0.375000 -0.375000 -0.125000    0.01562500   3 t-inv F
  0.375000 -0.125000 -0.375000    0.01562500   3 t-inv F
  0.125000 -0.375000 -0.375000    0.01562500   3 t-inv F
 -0.375000 -0.375000  0.125000    0.01562500   3 t-inv F
 -0.125000 -0.375000  0.375000    0.01562500   3 t-inv F
 -0.375000 -0.125000  0.375000    0.01562500   3 t-inv F
 -0.375000  0.375000 -0.125000    0.01562500   3 t-inv F
 -0.375000  0.125000 -0.375000    0.01562500   3 t-inv F
 -0.125000  0.375000 -0.375000    0.01562500   3 t-inv F
 -0.375000 -0.375000 -0.125000    0.01562500   3 t-inv F
 -0.125000 -0.375000 -0.375000    0.01562500   3 t-inv F
 -0.375000 -0.125000 -0.375000    0.01562500   3 t-inv F
 -0.375000  0.375000  0.125000    0.01562500   3 t-inv F
 -0.375000  0.125000  0.375000    0.01562500   3 t-inv F
 -0.125000  0.375000  0.375000    0.01562500   3 t-inv F
  0.375000  0.375000 -0.125000    0.01562500   3 t-inv F
  0.125000  0.375000 -0.375000    0.01562500   3 t-inv F
  0.375000  0.125000 -0.375000    0.01562500   3 t-inv F
  0.375000 -0.375000  0.125000    0.01562500   3 t-inv F
  0.375000 -0.125000  0.375000    0.01562500   3 t-inv F
  0.125000 -0.375000  0.375000    0.01562500   3 t-inv F
  0.375000 -0.375000 -0.375000    0.01562500   4 t-inv F
 -0.375000 -0.375000  0.375000    0.01562500   4 t-inv F
 -0.375000  0.375000 -0.375000    0.01562500   4 t-inv F
 -0.375000 -0.375000 -0.375000    0.01562500   4 t-inv F
 -0.375000  0.375000  0.375000    0.01562500   4 t-inv F
  0.375000  0.375000 -0.375000    0.01562500   4 t-inv F
  0.375000 -0.375000  0.375000    0.01562500   4 t-inv F


--------------------------------------------------------------------------------------------------------




 Dimension of arrays:
   k-points           NKPTS =      4   k-points in BZ     NKDIM =      4   number of bands    NBANDS=    216
   number of dos      NEDOS =    301   number of ions     NIONS =     56
   non local maximal  LDIM  =      6   non local SUM 2l+1 LMDIM =     18
   total plane-waves  NPLWV = 343000
   max r-space proj   IRMAX =      1   max aug-charges    IRDMAX=  29091
   dimension x,y,z NGX =    70 NGY =   70 NGZ =   70
   dimension x,y,z NGXF=   140 NGYF=  140 NGZF=  140
   support grid    NGXF=   140 NGYF=  140 NGZF=  140
   ions per type =               8  16  32
   NGX,Y,Z   is equivalent  to a cutoff of  10.56, 10.56, 10.56 a.u.
   NGXF,Y,Z  is equivalent  to a cutoff of  21.12, 21.12, 21.12 a.u.

 SYSTEM =  unknown system                          
 POSCAR =  CdIn2S4                                 

 Startparameter for this run:
   NWRITE =      2    write-flag & timer
   PREC   = normal    normal or accurate (medium, high low for compatibility)
   ISTART =      1    job   : 0-new  1-cont  2-samecut
   ICHARG =      0    charge: 1-file 2-atom 10-const
   ISPIN  =      1    spin polarized calculation?
   LNONCOLLINEAR =      F non collinear calculations
   LSORBIT =      F    spin-orbit coupling
   INIWAV =      1    electr: 0-lowe 1-rand  2-diag
   LASPH  =      F    aspherical Exc in radial PAW
   METAGGA=      F    non-selfconsistent MetaGGA calc.

 Electronic Relaxation 1
   ENCUT  =  600.0 eV  44.10 Ry    6.64 a.u.  22.01 22.01 22.01*2*pi/ulx,y,z
   ENINI  =  600.0     initial cutoff
   ENAUG  =  456.1 eV  augmentation charge cutoff
   NELM   =    100;   NELMIN=  2; NELMDL=  0     # of ELM steps 
   EDIFF  = 0.1E-05   stopping-criterion for ELM
   LREAL  =      F    real-space projection
   NLSPLINE    = F    spline interpolate recip. space projectors
   LCOMPAT=      F    compatible to vasp.4.4
   GGA_COMPAT  = T    GGA compatible to vasp.4.4-vasp.4.6
   LMAXPAW     = -100 max onsite density
   LMAXMIX     =    2 max onsite mixed and CHGCAR
   VOSKOWN=      0    Vosko Wilk Nusair interpolation
   ROPT   =    0.00000   0.00000   0.00000
 Ionic relaxation
   EDIFFG = 0.1E-04   stopping-criterion for IOM
   NSW    =      1    number of steps for IOM
   NBLOCK =      1;   KBLOCK =      1    inner block; outer block 
   IBRION =      8    ionic relax: 0-MD 1-quasi-New 2-CG
   NFREE  =      0    steps in history (QN), initial steepest desc. (CG)
   ISIF   =      2    stress and relaxation
   IWAVPR =     11    prediction:  0-non 1-charg 2-wave 3-comb
   ISYM   =      2    0-nonsym 1-usesym 2-fastsym
   LCORR  =      T    Harris-Foulkes like correction to forces

   POTIM  = 0.5000    time-step for ionic-motion
   TEIN   =    0.0    initial temperature
   TEBEG  =    0.0;   TEEND  =   0.0 temperature during run
   SMASS  =  -3.00    Nose mass-parameter (am)
   estimated Nose-frequenzy (Omega)   =  0.10E-29 period in steps =****** mass=  -0.278E-26a.u.
   SCALEE = 1.0000    scale energy and forces
   NPACO  =    256;   APACO  = 16.0  distance and # of slots for P.C.
   PSTRESS=    0.0 pullay stress

  Mass of Ions in am
   POMASS = 112.41114.82 32.07
  Ionic Valenz
   ZVAL   =  12.00  3.00  6.00
  Atomic Wigner-Seitz radii
   RWIGS  =  -1.00 -1.00 -1.00
  virtual crystal weights 
   VCA    =   1.00  1.00  1.00
   NELECT =     336.0000    total number of electrons
   NUPDOWN=      -1.0000    fix difference up-down

 DOS related values:
   EMIN   =  10.00;   EMAX   =-10.00  energy-range for DOS
   EFERMI =   0.00
   ISMEAR =    -5;   SIGMA  =   0.20  broadening in eV -4-tet -1-fermi 0-gaus

 Electronic relaxation 2 (details)
   IALGO  =     38    algorithm
   LDIAG  =      T    sub-space diagonalisation (order eigenvalues)
   LSUBROT=      F    optimize rotation matrix (better conditioning)
   TURBO    =      0    0=normal 1=particle mesh
   IRESTART =      0    0=no restart 2=restart with 2 vectors
   NREBOOT  =      0    no. of reboots
   NMIN     =      0    reboot dimension
   EREF     =   0.00    reference energy to select bands
   IMIX   =      4    mixing-type and parameters
     AMIX     =   0.40;   BMIX     =  1.00
     AMIX_MAG =   1.60;   BMIX_MAG =  1.00
     AMIN     =   0.10
     WC   =   100.;   INIMIX=   1;  MIXPRE=   1;  MAXMIX= -45

 Intra band minimization:
   WEIMIN = 0.0010     energy-eigenvalue tresh-hold
   EBREAK =  0.12E-08  absolut break condition
   DEPER  =   0.30     relativ break condition  

   TIME   =   0.40     timestep for ELM

  volume/ion in A,a.u.               =      23.91       161.37
  Fermi-wavevector in a.u.,A,eV,Ry     =   1.032556  1.951248 14.506147  1.066172
  Thomas-Fermi vector in A             =   2.166759
 
 Write flags
   LWAVE        =      T    write WAVECAR
   LDOWNSAMPLE  =      F    k-point downsampling of WAVECAR
   LCHARG       =      T    write CHGCAR
   LVTOT        =      F    write LOCPOT, total local potential
   LVHAR        =      F    write LOCPOT, Hartree potential only
   LELF         =      F    write electronic localiz. function (ELF)
   LORBIT       =      0    0 simple, 1 ext, 2 COOP (PROOUT), +10 PAW based schemes


 Dipole corrections
   LMONO  =      F    monopole corrections only (constant potential shift)
   LDIPOL =      F    correct potential (dipole corrections)
   IDIPOL =      0    1-x, 2-y, 3-z, 4-all directions 
   EPSILON=  1.0000000 bulk dielectric constant

 Exchange correlation treatment:
   GGA     =    PS    GGA type
   LEXCH   =    14    internal setting for exchange type
   VOSKOWN=      0    Vosko Wilk Nusair interpolation
   LHFCALC =     F    Hartree Fock is set to
   LHFONE  =     F    Hartree Fock one center treatment
   AEXX    =    0.0000 exact exchange contribution

 Linear response parameters
   LEPSILON=     T    determine dielectric tensor
   LRPA    =     F    only Hartree local field effects (RPA)
   LNABLA  =     F    use nabla operator in PAW spheres
   LVEL    =     F    velocity operator in full k-point grid
   LINTERFAST=   F  fast interpolation
   KINTER  =     0    interpolate to denser k-point grid
   CSHIFT  =0.1000    complex shift for real part using Kramers Kronig
   OMEGAMAX=  -1.0    maximum frequency
   DEG_THRESHOLD= 0.2000000E-02 threshold for treating states as degnerate
   RTIME   =   -0.100 relaxation time in fs
  (WPLASMAI=    0.000 imaginary part of plasma frequency in eV, 0.658/RTIME)
   DFIELD  = 0.0000000 0.0000000 0.0000000 field for delta impulse in time
 
 Orbital magnetization related:
   ORBITALMAG=     F  switch on orbital magnetization
   LCHIMAG   =     F  perturbation theory with respect to B field
   DQ        =  0.001000  dq finite difference perturbation B field
   LLRAUG    =     F  two centre corrections for induced B field



--------------------------------------------------------------------------------------------------------


 linear response using symmetry
 charge density and potential will be updated during run
 non-spin polarized calculation
 Variant of blocked Davidson
 Davidson routine will perform the subspace rotation
 perform sub-space diagonalisation
    after iterative eigenvector-optimisation
 modified Broyden-mixing scheme, WC =      100.0
 initial mixing is a Kerker type mixing with AMIX =  0.4000 and BMIX =      1.0000
 Hartree-type preconditioning will be used
 using additional bands           48
 reciprocal scheme for non local part
 use partial core corrections
 calculate Harris-corrections to forces 
   (improved forces if not selfconsistent)
 use gradient corrections 
 use of overlap-Matrix (Vanderbilt PP)
 Fermi weights with tetrahedron method with Bloechl corrections


--------------------------------------------------------------------------------------------------------


  energy-cutoff  :      600.00
  volume of cell :     1339.13
      direct lattice vectors                 reciprocal lattice vectors
    11.022353692  0.000000000  0.000000000     0.090724724  0.000000000  0.000000000
     0.000000000 11.022353692  0.000000000     0.000000000  0.090724724  0.000000000
     0.000000000  0.000000000 11.022353692     0.000000000  0.000000000  0.090724724

  length of vectors
    11.022353692 11.022353692 11.022353692     0.090724724  0.090724724  0.090724724


 
 old parameters found on file WAVECAR:
  energy-cutoff  :      600.00
  volume of cell :     1339.13
      direct lattice vectors                 reciprocal lattice vectors
    11.022353692  0.000000000  0.000000000     0.090724724  0.000000000  0.000000000
     0.000000000 11.022353692  0.000000000     0.000000000  0.090724724  0.000000000
     0.000000000  0.000000000 11.022353692     0.000000000  0.000000000  0.090724724

  length of vectors

 
 k-points in units of 2pi/SCALE and weight: k-points                                
   0.01134059  0.01134059  0.01134059       0.125
   0.03402177  0.01134059  0.01134059       0.375
   0.03402177  0.03402177  0.01134059       0.375
   0.03402177  0.03402177  0.03402177       0.125
 
 k-points in reciprocal lattice and weights: k-points                                
   0.12500000  0.12500000  0.12500000       0.125
   0.37500000  0.12500000  0.12500000       0.375
   0.37500000  0.37500000  0.12500000       0.375
   0.37500000  0.37500000  0.37500000       0.125
 
 position of ions in fractional coordinates (direct lattice) 
   0.00000000  0.00000000  0.00000000
   0.00000000  0.50000000  0.50000000
   0.50000000  0.50000000  0.00000000
   0.50000000  0.00000000  0.50000000
   0.75000000  0.25000000  0.75000000
   0.25000000  0.25000000  0.25000000
   0.25000000  0.75000000  0.75000000
   0.75000000  0.75000000  0.25000000
   0.62500000  0.62500000  0.62500000
   0.37500000  0.87500000  0.12500000
   0.87500000  0.12500000  0.37500000
   0.12500000  0.37500000  0.87500000
   0.87500000  0.37500000  0.12500000
   0.37500000  0.12500000  0.87500000
   0.12500000  0.87500000  0.37500000
   0.62500000  0.12500000  0.12500000
   0.37500000  0.37500000  0.62500000
   0.87500000  0.62500000  0.87500000
   0.87500000  0.87500000  0.62500000
   0.37500000  0.62500000  0.37500000
   0.12500000  0.62500000  0.12500000
   0.62500000  0.37500000  0.37500000
   0.62500000  0.87500000  0.87500000
   0.12500000  0.12500000  0.62500000
   0.38484764  0.38484764  0.38484764
   0.61515233  0.11515236  0.88484767
   0.11515236  0.88484767  0.61515233
   0.88484767  0.61515233  0.11515236
   0.13484764  0.63484767  0.36515236
   0.86515233  0.86515233  0.86515233
   0.63484767  0.36515236  0.13484764
   0.36515236  0.13484764  0.63484767
   0.63484767  0.13484764  0.36515236
   0.13484764  0.36515236  0.63484767
   0.36515236  0.63484767  0.13484764
   0.11515236  0.61515233  0.88484767
   0.61515233  0.88484767  0.11515236
   0.88484767  0.11515236  0.61515233
   0.38484764  0.88484767  0.88484767
   0.61515233  0.61515233  0.38484764
   0.11515236  0.38484764  0.11515236
   0.13484764  0.13484764  0.86515233
   0.86515233  0.36515236  0.36515236
   0.63484767  0.86515233  0.63484767
   0.63484767  0.63484767  0.86515233
   0.13484764  0.86515233  0.13484764
   0.11515236  0.11515236  0.38484764
   0.61515233  0.38484764  0.61515233
   0.88484767  0.38484764  0.88484767
   0.38484764  0.61515233  0.61515233
   0.36515236  0.86515233  0.36515236
   0.86515233  0.13484764  0.13484764
   0.86515233  0.63484767  0.63484767
   0.38484764  0.11515236  0.11515236
   0.88484767  0.88484767  0.38484764
   0.36515236  0.36515236  0.86515233
 
 position of ions in cartesian coordinates  (Angst):
   0.00000000  0.00000000  0.00000000
   0.00000000  5.51117685  5.51117685
   5.51117685  5.51117685  0.00000000
   5.51117685  0.00000000  5.51117685
   8.26676527  2.75558842  8.26676527
   2.75558842  2.75558842  2.75558842
   2.75558842  8.26676527  8.26676527
   8.26676527  8.26676527  2.75558842
   6.88897106  6.88897106  6.88897106
   4.13338263  9.64455948  1.37779421
   9.64455948  1.37779421  4.13338263
   1.37779421  4.13338263  9.64455948
   9.64455948  4.13338263  1.37779421
   4.13338263  1.37779421  9.64455948
   1.37779421  9.64455948  4.13338263
   6.88897106  1.37779421  1.37779421
   4.13338263  4.13338263  6.88897106
   9.64455948  6.88897106  9.64455948
   9.64455948  9.64455948  6.88897106
   4.13338263  6.88897106  4.13338263
   1.37779421  6.88897106  1.37779421
   6.88897106  4.13338263  4.13338263
   6.88897106  9.64455948  9.64455948
   1.37779421  1.37779421  6.88897106
   4.24192681  4.24192681  4.24192681
   6.78042656  1.26925004  9.75310398
   1.26925004  9.75310398  6.78042656
   9.75310398  6.78042656  1.26925004
   1.48633838  6.99751556  4.02483846
   9.53601498  9.53601498  9.53601498
   6.99751556  4.02483846  1.48633838
   4.02483846  1.48633838  6.99751556
   6.99751556  1.48633838  4.02483846
   1.48633838  4.02483846  6.99751556
   4.02483846  6.99751556  1.48633838
   1.26925004  6.78042656  9.75310398
   6.78042656  9.75310398  1.26925004
   9.75310398  1.26925004  6.78042656
   4.24192681  9.75310398  9.75310398
   6.78042656  6.78042656  4.24192681
   1.26925004  4.24192681  1.26925004
   1.48633838  1.48633838  9.53601498
   9.53601498  4.02483846  4.02483846
   6.99751556  9.53601498  6.99751556
   6.99751556  6.99751556  9.53601498
   1.48633838  9.53601498  1.48633838
   1.26925004  1.26925004  4.24192681
   6.78042656  4.24192681  6.78042656
   9.75310398  4.24192681  9.75310398
   4.24192681  6.78042656  6.78042656
   4.02483846  9.53601498  4.02483846
   9.53601498  1.48633838  1.48633838
   9.53601498  6.99751556  6.99751556
   4.24192681  1.26925004  1.26925004
   9.75310398  9.75310398  4.24192681
   4.02483846  4.02483846  9.53601498
 


--------------------------------------------------------------------------------------------------------


 k-point  1 :   0.1250 0.1250 0.1250  plane waves:   44659
 k-point  2 :   0.3750 0.1250 0.1250  plane waves:   44685
 k-point  3 :   0.3750 0.3750 0.1250  plane waves:   44717
 k-point  4 :   0.3750 0.3750 0.3750  plane waves:   44684

 maximum and minimum number of plane-waves per node :     44717    44659

 maximum number of plane-waves:     44717
 maximum index in each direction: 
   IXMAX=   21   IYMAX=   21   IZMAX=   21
   IXMIN=  -22   IYMIN=  -22   IZMIN=  -22


 serial   3D FFT for wavefunctions
 parallel 3D FFT for charge:
    minimum data exchange during FFTs selected (reduces bandwidth)


 total amount of memory used by VASP MPI-rank0   188637. kBytes
=======================================================================

   base      :      30000. kBytes
   nonl-proj :     117418. kBytes
   fftplans  :       4062. kBytes
   grid      :      18869. kBytes
   one-center:        870. kBytes
   wavefun   :      17418. kBytes
 
     INWAV:  cpu time    1.5253: real time    1.6800
 Broyden mixing: mesh for mixing (old mesh)
   NGX = 45   NGY = 45   NGZ = 45
  (NGX  =140   NGY  =140   NGZ  =140)
  gives a total of  91125 points

 charge density for first step will be calculated from the start-wavefunctions


--------------------------------------------------------------------------------------------------------


 Maximum index for augmentation-charges          616 (set IRDMAX)


--------------------------------------------------------------------------------------------------------


 initial charge from wavefunction
 First call to EWALD:  gamma=   0.161
 Maximum number of real-space cells 3x 3x 3
 Maximum number of reciprocal cells 3x 3x 3

    FEWALD:  cpu time    0.0027: real time    0.0028


--------------------------------------- Iteration      1(   1)  ---------------------------------------


    POTLOK:  cpu time    0.0610: real time    0.0768
    SETDIJ:  cpu time    0.0087: real time    0.0089
     EDDAV:  cpu time   17.8972: real time   17.9485
 BZINTS: Fermi energy:  2.424888;336.000000 electrons
         Band energy:-922.185100;  BLOECHL correction:  0.000000
       DOS:  cpu time    0.0011: real time    0.0011
    CHARGE:  cpu time    0.2464: real time    0.2470
    MIXING:  cpu time    0.0025: real time    0.0028
    --------------------------------------------
      LOOP:  cpu time   18.2169: real time   18.2851

 eigenvalue-minimisations  :  2160
 total energy-change (2. order) :-0.2314269E+03  (-0.7494808E+01)
 number of electron     335.9999798 magnetization 
 augmentation part       10.6640439 magnetization 

 Broyden mixing:
  rms(total) = 0.46923E+00    rms(broyden)= 0.46923E+00
  rms(prec ) = 0.46954E+00
  weight for this iteration     100.00

 Free energy of the ion-electron system (eV)
  ---------------------------------------------------
  alpha Z        PSCENC =       570.15267500
  Ewald energy   TEWEN  =    -15357.38264644
  -Hartree energ DENC   =     -5454.51669462
  -exchange      EXHF   =         0.00000000
  -V(xc)+E(xc)   XCENC  =      -410.39025054
  PAW double counting   =     31407.77895314   -30100.88662006
  entropy T*S    EENTRO =         0.00000000
  eigenvalues    EBANDS =      -922.18510045
  atomic energy  EATOM  =     20036.00280705
  Solvation  Ediel_sol  =         0.00000000
  ---------------------------------------------------
  free energy    TOTEN  =      -231.42687692 eV

  energy without entropy =     -231.42687692  energy(sigma->0) =     -231.42687692


--------------------------------------------------------------------------------------------------------




--------------------------------------- Iteration      1(   2)  ---------------------------------------


    POTLOK:  cpu time    0.0568: real time    0.0603
    SETDIJ:  cpu time    0.0082: real time    0.0082
     EDDAV:  cpu time   16.8993: real time   16.9476
 BZINTS: Fermi energy:  2.438591;336.000000 electrons
         Band energy:-922.412593;  BLOECHL correction:  0.000000
       DOS:  cpu time    0.0012: real time    0.0012
    CHARGE:  cpu time    0.2463: real time    0.2469
    MIXING:  cpu time    0.0021: real time    0.0023
    --------------------------------------------
      LOOP:  cpu time   17.2140: real time   17.2665

 eigenvalue-minimisations  :  2016
 total energy-change (2. order) :-0.5231571E+00  (-0.5247997E+00)
 number of electron     335.9999798 magnetization 
 augmentation part       10.6104994 magnetization 

 Broyden mixing:
  rms(total) = 0.61279E+00    rms(broyden)= 0.61279E+00
  rms(prec ) = 0.61285E+00
  weight for this iteration     100.00

 eigenvalues of (default mixing * dielectric matrix)
  average eigenvalue GAMMA=   2.4871
  2.4871

 Free energy of the ion-electron system (eV)
  ---------------------------------------------------
  alpha Z        PSCENC =       570.15267500
  Ewald energy   TEWEN  =    -15357.38264644
  -Hartree energ DENC   =     -5454.87515588
  -exchange      EXHF   =         0.00000000
  -V(xc)+E(xc)   XCENC  =      -410.40062350
  PAW double counting   =     31194.24320073   -29887.27769752
  entropy T*S    EENTRO =         0.00000000
  eigenvalues    EBANDS =      -922.41259345
  atomic energy  EATOM  =     20036.00280705
  Solvation  Ediel_sol  =         0.00000000
  ---------------------------------------------------
  free energy    TOTEN  =      -231.95003401 eV

  energy without entropy =     -231.95003401  energy(sigma->0) =     -231.95003401


--------------------------------------------------------------------------------------------------------




--------------------------------------- Iteration      1(   3)  ---------------------------------------


    POTLOK:  cpu time    0.0554: real time    0.0591
    SETDIJ:  cpu time    0.0083: real time    0.0083
     EDDAV:  cpu time   18.8340: real time   18.8875
 BZINTS: Fermi energy:  2.421753;336.000000 electrons
         Band energy:-923.249442;  BLOECHL correction:  0.000000
       DOS:  cpu time    0.0012: real time    0.0012
    CHARGE:  cpu time    0.2466: real time    0.2472
    MIXING:  cpu time    0.0020: real time    0.0020
    --------------------------------------------
      LOOP:  cpu time   19.1475: real time   19.2054

 eigenvalue-minimisations  :  2304
 total energy-change (2. order) :-0.1296934E-01  (-0.1027458E-01)
 number of electron     335.9999798 magnetization 
 augmentation part       10.6090625 magnetization 

 Broyden mixing:
  rms(total) = 0.12166E+01    rms(broyden)= 0.12166E+01
  rms(prec ) = 0.12169E+01
  weight for this iteration     100.00

 eigenvalues of (default mixing * dielectric matrix)
  average eigenvalue GAMMA=   1.8497
  0.9123  2.7871

 Free energy of the ion-electron system (eV)
  ---------------------------------------------------
  alpha Z        PSCENC =       570.15267500
  Ewald energy   TEWEN  =    -15357.38264644
  -Hartree energ DENC   =     -5453.51492149
  -exchange      EXHF   =         0.00000000
  -V(xc)+E(xc)   XCENC  =      -410.52973309
  PAW double counting   =     32253.71907312   -30947.16081515
  entropy T*S    EENTRO =         0.00000000
  eigenvalues    EBANDS =      -923.24944237
  atomic energy  EATOM  =     20036.00280705
  Solvation  Ediel_sol  =         0.00000000
  ---------------------------------------------------
  free energy    TOTEN  =      -231.96300336 eV

  energy without entropy =     -231.96300336  energy(sigma->0) =     -231.96300336


--------------------------------------------------------------------------------------------------------




--------------------------------------- Iteration      1(   4)  ---------------------------------------


    POTLOK:  cpu time    0.0554: real time    0.0592
    SETDIJ:  cpu time    0.0083: real time    0.0083
     EDDAV:  cpu time   17.6134: real time   17.6634
 BZINTS: Fermi energy:  2.419896;336.000000 electrons
         Band energy:-921.938271;  BLOECHL correction:  0.000000
       DOS:  cpu time    0.0012: real time    0.0012
    CHARGE:  cpu time    0.2463: real time    0.2469
    MIXING:  cpu time    0.0021: real time    0.0021
    --------------------------------------------
      LOOP:  cpu time   17.9267: real time   17.9810

 eigenvalue-minimisations  :  2124
 total energy-change (2. order) : 0.4584039E-02  (-0.1493321E-02)
 number of electron     335.9999798 magnetization 
 augmentation part       10.6076121 magnetization 

 Broyden mixing:
  rms(total) = 0.48840E-01    rms(broyden)= 0.48840E-01
  rms(prec ) = 0.49016E-01
  weight for this iteration     100.00

 eigenvalues of (default mixing * dielectric matrix)
  average eigenvalue GAMMA=   1.3512
  2.6219  0.9399  0.4917

 Free energy of the ion-electron system (eV)
  ---------------------------------------------------
  alpha Z        PSCENC =       570.15267500
  Ewald energy   TEWEN  =    -15357.38264644
  -Hartree energ DENC   =     -5455.89379553
  -exchange      EXHF   =         0.00000000
  -V(xc)+E(xc)   XCENC  =      -410.31447237
  PAW double counting   =     30061.87064943   -28754.45536564
  entropy T*S    EENTRO =         0.00000000
  eigenvalues    EBANDS =      -921.93827082
  atomic energy  EATOM  =     20036.00280705
  Solvation  Ediel_sol  =         0.00000000
  ---------------------------------------------------
  free energy    TOTEN  =      -231.95841932 eV

  energy without entropy =     -231.95841932  energy(sigma->0) =     -231.95841932


--------------------------------------------------------------------------------------------------------




--------------------------------------- Iteration      1(   5)  ---------------------------------------


    POTLOK:  cpu time    0.0559: real time    0.0599
    SETDIJ:  cpu time    0.0082: real time    0.0082
     EDDAV:  cpu time   16.8890: real time   16.9369
 BZINTS: Fermi energy:  2.418029;336.000000 electrons
         Band energy:-921.757300;  BLOECHL correction:  0.000000
       DOS:  cpu time    0.0011: real time    0.0011
    CHARGE:  cpu time    0.2458: real time    0.2469
    MIXING:  cpu time    0.0022: real time    0.0022
    --------------------------------------------
      LOOP:  cpu time   17.2023: real time   17.2553

 eigenvalue-minimisations  :  2016
 total energy-change (2. order) :-0.8825887E-04  (-0.1465801E-03)
 number of electron     335.9999798 magnetization 
 augmentation part       10.6060858 magnetization 

 Broyden mixing:
  rms(total) = 0.55218E-02    rms(broyden)= 0.55218E-02
  rms(prec ) = 0.56642E-02
  weight for this iteration     100.00

 eigenvalues of (default mixing * dielectric matrix)
  average eigenvalue GAMMA=   1.2980
  2.3439  1.2617  0.7932  0.7932

 Free energy of the ion-electron system (eV)
  ---------------------------------------------------
  alpha Z        PSCENC =       570.15267500
  Ewald energy   TEWEN  =    -15357.38264644
  -Hartree energ DENC   =     -5456.03963987
  -exchange      EXHF   =         0.00000000
  -V(xc)+E(xc)   XCENC  =      -410.30499146
  PAW double counting   =     30140.21457284   -28832.84398487
  entropy T*S    EENTRO =         0.00000000
  eigenvalues    EBANDS =      -921.75729983
  atomic energy  EATOM  =     20036.00280705
  Solvation  Ediel_sol  =         0.00000000
  ---------------------------------------------------
  free energy    TOTEN  =      -231.95850758 eV

  energy without entropy =     -231.95850758  energy(sigma->0) =     -231.95850758


--------------------------------------------------------------------------------------------------------




--------------------------------------- Iteration      1(   6)  ---------------------------------------


    POTLOK:  cpu time    0.0558: real time    0.0595
    SETDIJ:  cpu time    0.0082: real time    0.0082
     EDDAV:  cpu time   19.3021: real time   19.3568
 BZINTS: Fermi energy:  2.416978;336.000000 electrons
         Band energy:-921.704511;  BLOECHL correction:  0.000000
       DOS:  cpu time    0.0012: real time    0.0012
    CHARGE:  cpu time    0.2465: real time    0.2471
    MIXING:  cpu time    0.0023: real time    0.0023
    --------------------------------------------
      LOOP:  cpu time   19.6161: real time   19.6751

 eigenvalue-minimisations  :  2376
 total energy-change (2. order) : 0.1979923E-05  (-0.3422529E-05)
 number of electron     335.9999798 magnetization 
 augmentation part       10.6056342 magnetization 

 Broyden mixing:
  rms(total) = 0.12168E-01    rms(broyden)= 0.12168E-01
  rms(prec ) = 0.12184E-01
  weight for this iteration     100.00

 eigenvalues of (default mixing * dielectric matrix)
  average eigenvalue GAMMA=   1.5172
  2.4911  2.4911  0.9020  0.9020  0.7997

 Free energy of the ion-electron system (eV)
  ---------------------------------------------------
  alpha Z        PSCENC =       570.15267500
  Ewald energy   TEWEN  =    -15357.38264644
  -Hartree energ DENC   =     -5456.08185269
  -exchange      EXHF   =         0.00000000
  -V(xc)+E(xc)   XCENC  =      -410.30467514
  PAW double counting   =     30151.67502574   -28844.31532825
  entropy T*S    EENTRO =         0.00000000
  eigenvalues    EBANDS =      -921.70451087
  atomic energy  EATOM  =     20036.00280705
  Solvation  Ediel_sol  =         0.00000000
  ---------------------------------------------------
  free energy    TOTEN  =      -231.95850560 eV

  energy without entropy =     -231.95850560  energy(sigma->0) =     -231.95850560


--------------------------------------------------------------------------------------------------------




--------------------------------------- Iteration      1(   7)  ---------------------------------------


    POTLOK:  cpu time    0.0564: real time    0.0604
    SETDIJ:  cpu time    0.0082: real time    0.0082
     EDDAV:  cpu time   16.1841: real time   16.2305
 BZINTS: Fermi energy:  2.416468;336.000000 electrons
         Band energy:-921.670936;  BLOECHL correction:  0.000000
       DOS:  cpu time    0.0012: real time    0.0012
    CHARGE:  cpu time    0.2462: real time    0.2468
    MIXING:  cpu time    0.0025: real time    0.0025
    --------------------------------------------
      LOOP:  cpu time   16.4985: real time   16.5496

 eigenvalue-minimisations  :  1908
 total energy-change (2. order) : 0.1928071E-05  (-0.9364515E-06)
 number of electron     335.9999798 magnetization 
 augmentation part       10.6054036 magnetization 

 Broyden mixing:
  rms(total) = 0.36441E-02    rms(broyden)= 0.36441E-02
  rms(prec ) = 0.36459E-02
  weight for this iteration     100.00

 eigenvalues of (default mixing * dielectric matrix)
  average eigenvalue GAMMA=   1.4583
  2.6712  2.3295  1.1458  0.9264  0.9264  0.7508

 Free energy of the ion-electron system (eV)
  ---------------------------------------------------
  alpha Z        PSCENC =       570.15267500
  Ewald energy   TEWEN  =    -15357.38264644
  -Hartree energ DENC   =     -5456.11788213
  -exchange      EXHF   =         0.00000000
  -V(xc)+E(xc)   XCENC  =      -410.30379394
  PAW double counting   =     30132.74155146   -28825.38027852
  entropy T*S    EENTRO =         0.00000000
  eigenvalues    EBANDS =      -921.67093615
  atomic energy  EATOM  =     20036.00280705
  Solvation  Ediel_sol  =         0.00000000
  ---------------------------------------------------
  free energy    TOTEN  =      -231.95850367 eV

  energy without entropy =     -231.95850367  energy(sigma->0) =     -231.95850367


--------------------------------------------------------------------------------------------------------




--------------------------------------- Iteration      1(   8)  ---------------------------------------


    POTLOK:  cpu time    0.0557: real time    0.0593
    SETDIJ:  cpu time    0.0081: real time    0.0082
     EDDAV:  cpu time   12.1564: real time   12.1911
 BZINTS: Fermi energy:  2.416147;336.000000 electrons
         Band energy:-921.677843;  BLOECHL correction:  0.000000
       DOS:  cpu time    0.0012: real time    0.0012
    --------------------------------------------
      LOOP:  cpu time   12.2215: real time   12.2598

 eigenvalue-minimisations  :  1296
 total energy-change (2. order) : 0.6975206E-06  (-0.3797785E-07)
 number of electron     335.9999798 magnetization 
 augmentation part       10.6054036 magnetization 

 Free energy of the ion-electron system (eV)
  ---------------------------------------------------
  alpha Z        PSCENC =       570.15267500
  Ewald energy   TEWEN  =    -15357.38264644
  -Hartree energ DENC   =     -5456.11191452
  -exchange      EXHF   =         0.00000000
  -V(xc)+E(xc)   XCENC  =      -410.30482539
  PAW double counting   =     30124.70370342   -28817.34045941
  entropy T*S    EENTRO =         0.00000000
  eigenvalues    EBANDS =      -921.67784269
  atomic energy  EATOM  =     20036.00280705
  Solvation  Ediel_sol  =         0.00000000
  ---------------------------------------------------
  free energy    TOTEN  =      -231.95850297 eV

  energy without entropy =     -231.95850297  energy(sigma->0) =     -231.95850297


--------------------------------------------------------------------------------------------------------




 average (electrostatic) potential at core
  the test charge radii are     1.0698  1.4837  0.9698
  (the norm of the test charge is              1.0000)
       1 -37.9745       2 -37.9745       3 -37.9745       4 -37.9745       5 -37.9745
       6 -37.9745       7 -37.9745       8 -37.9745       9 -38.9026      10 -38.9026
      11 -38.9026      12 -38.9026      13 -38.9026      14 -38.9026      15 -38.9026
      16 -38.9026      17 -38.9026      18 -38.9026      19 -38.9026      20 -38.9026
      21 -38.9026      22 -38.9026      23 -38.9026      24 -38.9026      25 -87.8357
      26 -87.8357      27 -87.8357      28 -87.8357      29 -87.8357      30 -87.8357
      31 -87.8357      32 -87.8357      33 -87.8357      34 -87.8357      35 -87.8357
      36 -87.8357      37 -87.8357      38 -87.8357      39 -87.8357      40 -87.8357
      41 -87.8357      42 -87.8357      43 -87.8357      44 -87.8357      45 -87.8357
      46 -87.8357      47 -87.8357      48 -87.8357      49 -87.8357      50 -87.8357
      51 -87.8357      52 -87.8357      53 -87.8357      54 -87.8357      55 -87.8357
      56 -87.8357
 
 
 
 E-fermi :   2.4161     XC(G=0):  -9.4197     alpha+bet : -9.0211


 k-point     1 :       0.1250    0.1250    0.1250
  band No.  band energies     occupation 
      1     -10.2009      2.00000
      2      -9.8197      2.00000
      3      -9.8197      2.00000
      4      -9.8197      2.00000
      5      -9.6239      2.00000
      6      -9.6239      2.00000
      7      -9.6239      2.00000
      8      -9.2412      2.00000
      9      -9.0885      2.00000
     10      -9.0885      2.00000
     11      -9.0885      2.00000
     12      -9.0302      2.00000
     13      -9.0146      2.00000
     14      -9.0146      2.00000
     15      -9.0146      2.00000
     16      -8.9927      2.00000
     17      -8.9927      2.00000
     18      -8.8991      2.00000
     19      -8.8991      2.00000
     20      -8.8991      2.00000
     21      -8.8273      2.00000
     22      -8.8273      2.00000
     23      -8.8273      2.00000
     24      -8.6230      2.00000
     25      -8.6230      2.00000
     26      -8.6107      2.00000
     27      -8.6107      2.00000
     28      -8.6107      2.00000
     29      -8.5993      2.00000
     30      -8.5993      2.00000
     31      -8.5993      2.00000
     32      -8.5950      2.00000
     33      -5.0128      2.00000
     34      -5.0128      2.00000
     35      -5.0128      2.00000
     36      -4.9969      2.00000
     37      -4.9969      2.00000
     38      -4.9969      2.00000
     39      -4.9123      2.00000
     40      -4.9123      2.00000
     41      -4.9123      2.00000
     42      -4.8925      2.00000
     43      -4.8925      2.00000
     44      -4.8925      2.00000
     45      -4.8705      2.00000
     46      -4.8514      2.00000
     47      -4.8514      2.00000
     48      -4.8434      2.00000
     49      -4.8386      2.00000
     50      -4.8386      2.00000
     51      -4.8244      2.00000
     52      -4.8244      2.00000
     53      -4.8244      2.00000
     54      -4.8229      2.00000
     55      -4.8229      2.00000
     56      -4.8229      2.00000
     57      -4.8223      2.00000
     58      -4.8223      2.00000
     59      -4.8145      2.00000
     60      -4.8145      2.00000
     61      -4.8145      2.00000
     62      -4.8138      2.00000
     63      -4.8138      2.00000
     64      -4.8138      2.00000
     65      -4.8067      2.00000
     66      -4.8067      2.00000
     67      -4.8067      2.00000
     68      -4.8010      2.00000
     69      -4.8010      2.00000
     70      -4.8010      2.00000
     71      -4.8000      2.00000
     72      -4.8000      2.00000
     73      -2.9197      2.00000
     74      -2.8183      2.00000
     75      -2.8183      2.00000
     76      -2.7380      2.00000
     77      -2.5163      2.00000
     78      -2.5163      2.00000
     79      -2.5163      2.00000
     80      -2.4262      2.00000
     81      -2.4262      2.00000
     82      -2.4262      2.00000
     83      -2.2480      2.00000
     84      -2.0429      2.00000
     85      -2.0429      2.00000
     86      -2.0429      2.00000
     87      -1.8856      2.00000
     88      -1.8856      2.00000
     89      -1.8856      2.00000
     90      -1.2825      2.00000
     91      -1.2825      2.00000
     92      -1.2825      2.00000
     93      -1.0959      2.00000
     94      -1.0959      2.00000
     95      -0.7924      2.00000
     96      -0.7924      2.00000
     97      -0.7924      2.00000
     98      -0.5431      2.00000
     99      -0.5431      2.00000
    100      -0.5431      2.00000
    101      -0.2957      2.00000
    102      -0.2957      2.00000
    103      -0.2957      2.00000
    104      -0.1917      2.00000
    105      -0.1917      2.00000
    106      -0.1917      2.00000
    107      -0.1754      2.00000
    108      -0.1754      2.00000
    109      -0.1754      2.00000
    110      -0.0396      2.00000
    111      -0.0396      2.00000
    112      -0.0396      2.00000
    113       0.1780      2.00000
    114       0.1861      2.00000
    115       0.1861      2.00000
    116       0.1861      2.00000
    117       0.2925      2.00000
    118       0.2925      2.00000
    119       0.3500      2.00000
    120       0.3500      2.00000
    121       0.3500      2.00000
    122       0.5560      2.00000
    123       0.5560      2.00000
    124       0.5560      2.00000
    125       0.7016      2.00000
    126       0.7016      2.00000
    127       0.7909      2.00000
    128       0.9714      2.00000
    129       0.9714      2.00000
    130       0.9714      2.00000
    131       0.9848      2.00000
    132       0.9848      2.00000
    133       0.9848      2.00000
    134       1.1378      2.00000
    135       1.1378      2.00000
    136       1.1378      2.00000
    137       1.1946      2.00000
    138       1.1946      2.00000
    139       1.1946      2.00000
    140       1.5159      2.00000
    141       1.5159      2.00000
    142       1.5159      2.00000
    143       1.5890      2.00000
    144       1.5970      2.00000
    145       1.5970      2.00000
    146       1.5970      2.00000
    147       1.7541      2.00000
    148       1.9005      2.00000
    149       1.9005      2.00000
    150       1.9263      2.00000
    151       1.9263      2.00000
    152       1.9263      2.00000
    153       1.9841      2.00000
    154       1.9841      2.00000
    155       1.9841      2.00000
    156       1.9980      2.00000
    157       1.9980      2.00000
    158       2.1446      2.00000
    159       2.1446      2.00000
    160       2.2082      2.00000
    161       2.2082      2.00000
    162       2.2082      2.00000
    163       2.2512      2.00000
    164       2.2789      2.00000
    165       2.2789      2.00000
    166       2.3118      2.00000
    167       2.3118      2.00000
    168       2.3118      2.00000
    169       3.7720      0.00000
    170       4.4217      0.00000
    171       4.4396      0.00000
    172       4.4396      0.00000
    173       4.8890      0.00000
    174       5.4352      0.00000
    175       5.4352      0.00000
    176       5.4352      0.00000
    177       5.5778      0.00000
    178       5.5778      0.00000
    179       5.5778      0.00000
    180       5.7490      0.00000
    181       5.7490      0.00000
    182       5.7490      0.00000
    183       5.7512      0.00000
    184       5.7512      0.00000
    185       5.7512      0.00000
    186       6.1583      0.00000
    187       6.5736      0.00000
    188       6.5736      0.00000
    189       6.5736      0.00000
    190       6.6957      0.00000
    191       6.7647      0.00000
    192       6.7647      0.00000
    193       6.7647      0.00000
    194       6.7838      0.00000
    195       6.7838      0.00000
    196       7.5271      0.00000
    197       7.5271      0.00000
    198       7.5271      0.00000
    199       7.7872      0.00000
    200       7.7872      0.00000
    201       7.7872      0.00000
    202       7.9960      0.00000
    203       7.9960      0.00000
    204       7.9960      0.00000
    205       8.0115      0.00000
    206       8.0115      0.00000
    207       8.0115      0.00000
    208       8.0605      0.00000
    209       8.2591      0.00000
    210       8.2591      0.00000
    211       8.4888      0.00000
    212       8.4890      0.00000
    213       8.4901      0.00000
    214       8.7248      0.00000
    215       8.7248      0.00000
    216       8.7278      0.00000

 k-point     2 :       0.3750    0.1250    0.1250
  band No.  band energies     occupation 
      1     -10.1302      2.00000
      2      -9.9970      2.00000
      3      -9.8093      2.00000
      4      -9.8093      2.00000
      5      -9.6318      2.00000
      6      -9.6318      2.00000
      7      -9.4502      2.00000
      8      -9.3185      2.00000
      9      -9.1449      2.00000
     10      -9.1449      2.00000
     11      -9.0742      2.00000
     12      -9.0532      2.00000
     13      -9.0284      2.00000
     14      -9.0284      2.00000
     15      -9.0084      2.00000
     16      -8.9994      2.00000
     17      -8.9505      2.00000
     18      -8.9164      2.00000
     19      -8.8278      2.00000
     20      -8.8278      2.00000
     21      -8.7730      2.00000
     22      -8.7573      2.00000
     23      -8.7573      2.00000
     24      -8.6900      2.00000
     25      -8.6593      2.00000
     26      -8.6593      2.00000
     27      -8.6240      2.00000
     28      -8.6240      2.00000
     29      -8.6192      2.00000
     30      -8.6141      2.00000
     31      -8.5960      2.00000
     32      -8.5919      2.00000
     33      -5.0269      2.00000
     34      -5.0269      2.00000
     35      -4.9982      2.00000
     36      -4.9981      2.00000
     37      -4.9761      2.00000
     38      -4.9655      2.00000
     39      -4.9213      2.00000
     40      -4.9054      2.00000
     41      -4.8936      2.00000
     42      -4.8891      2.00000
     43      -4.8891      2.00000
     44      -4.8724      2.00000
     45      -4.8637      2.00000
     46      -4.8546      2.00000
     47      -4.8546      2.00000
     48      -4.8481      2.00000
     49      -4.8462      2.00000
     50      -4.8462      2.00000
     51      -4.8443      2.00000
     52      -4.8397      2.00000
     53      -4.8337      2.00000
     54      -4.8332      2.00000
     55      -4.8241      2.00000
     56      -4.8241      2.00000
     57      -4.8181      2.00000
     58      -4.8177      2.00000
     59      -4.8177      2.00000
     60      -4.8162      2.00000
     61      -4.8136      2.00000
     62      -4.8136      2.00000
     63      -4.8130      2.00000
     64      -4.8129      2.00000
     65      -4.8128      2.00000
     66      -4.8081      2.00000
     67      -4.8080      2.00000
     68      -4.8080      2.00000
     69      -4.8068      2.00000
     70      -4.8065      2.00000
     71      -4.8023      2.00000
     72      -4.8021      2.00000
     73      -2.8062      2.00000
     74      -2.7005      2.00000
     75      -2.6685      2.00000
     76      -2.6401      2.00000
     77      -2.6219      2.00000
     78      -2.6219      2.00000
     79      -2.5370      2.00000
     80      -2.5079      2.00000
     81      -2.5079      2.00000
     82      -2.5031      2.00000
     83      -2.3483      2.00000
     84      -2.1795      2.00000
     85      -2.0440      2.00000
     86      -1.9428      2.00000
     87      -1.9428      2.00000
     88      -1.7038      2.00000
     89      -1.7038      2.00000
     90      -1.7038      2.00000
     91      -1.1272      2.00000
     92      -1.1272      2.00000
     93      -1.0024      2.00000
     94      -0.9359      2.00000
     95      -0.8159      2.00000
     96      -0.7659      2.00000
     97      -0.7659      2.00000
     98      -0.6154      2.00000
     99      -0.6035      2.00000
    100      -0.6035      2.00000
    101      -0.5314      2.00000
    102      -0.5314      2.00000
    103      -0.4117      2.00000
    104      -0.4117      2.00000
    105      -0.3761      2.00000
    106      -0.2787      2.00000
    107      -0.2787      2.00000
    108      -0.1037      2.00000
    109      -0.1037      2.00000
    110      -0.0597      2.00000
    111       0.0324      2.00000
    112       0.0589      2.00000
    113       0.0908      2.00000
    114       0.0908      2.00000
    115       0.1764      2.00000
    116       0.2665      2.00000
    117       0.3086      2.00000
    118       0.3145      2.00000
    119       0.5336      2.00000
    120       0.5336      2.00000
    121       0.5566      2.00000
    122       0.6225      2.00000
    123       0.6997      2.00000
    124       0.7995      2.00000
    125       0.8231      2.00000
    126       0.8231      2.00000
    127       0.8717      2.00000
    128       0.9177      2.00000
    129       0.9505      2.00000
    130       1.0423      2.00000
    131       1.0423      2.00000
    132       1.1449      2.00000
    133       1.1453      2.00000
    134       1.1453      2.00000
    135       1.2692      2.00000
    136       1.2692      2.00000
    137       1.2700      2.00000
    138       1.3360      2.00000
    139       1.3360      2.00000
    140       1.3391      2.00000
    141       1.4297      2.00000
    142       1.4714      2.00000
    143       1.4714      2.00000
    144       1.6219      2.00000
    145       1.6219      2.00000
    146       1.6433      2.00000
    147       1.7109      2.00000
    148       1.7109      2.00000
    149       1.7193      2.00000
    150       1.7510      2.00000
    151       1.8317      2.00000
    152       1.8317      2.00000
    153       1.8470      2.00000
    154       1.9015      2.00000
[...]
      0.000000  5.511177  5.511177     0.104289    0.037461   -0.082700  
      5.511177  5.511177  0.000000     0.045776   -0.037461    0.015019  
      5.511177  0.000000  5.511177    -0.045776   -0.039184    0.082700  
      8.266765  2.755588  8.266765     0.032979    0.078116   -0.113355  
      2.755588  2.755588  2.755588     0.034702   -0.078116   -0.036710  
      2.755588  8.266765  8.266765    -0.034702   -0.019603    0.113355  
      8.266765  8.266765  2.755588    -0.032979    0.019603    0.036710  
      6.888971  6.888971  6.888971    -0.077691   -0.011231   -0.038974  
      4.133383  9.644559  1.377794     0.092615    0.045588   -0.220067  
      9.644559  1.377794  4.133383    -0.065728   -0.033981    0.188583  
      1.377794  4.133383  9.644559    -0.089195   -0.124001    0.177336  
      9.644559  4.133383  1.377794    -0.021357    0.025670    0.271933  
      4.133383  1.377794  9.644559     0.169098    0.109222   -0.085213  
      1.377794  9.644559  4.133383     0.108442    0.150445   -0.150893  
      6.888971  1.377794  1.377794     0.096938   -0.015213    0.012530  
      4.133383  4.133383  6.888971    -0.251860    0.173196    0.001283  
      9.644559  6.888971  9.644559    -0.093518   -0.184802    0.030200  
      9.644559  9.644559  6.888971     0.180602   -0.244454   -0.053150  
      4.133383  6.888971  4.133383    -0.009853    0.109562   -0.133571  
      1.377794  6.888971  1.377794    -0.025680    0.086471   -0.064397  
      6.888971  4.133383  4.133383    -0.184022   -0.074865    0.095880  
      6.888971  9.644559  9.644559     0.164775    0.048421   -0.122324  
      1.377794  1.377794  6.888971     0.006433   -0.060027    0.090840  
      4.241927  4.241927  4.241927    -0.071498    0.039196   -0.001900  
      6.780427  1.269250  9.753104     0.065789    0.018644   -0.011377  
      1.269250  9.753104  6.780427     0.058101   -0.023239   -0.039397  
      9.753104  6.780427  1.269250    -0.015646   -0.002152    0.024622  
      1.486338  6.997516  4.024838     0.001698    0.055184   -0.038929  
      9.536015  9.536015  9.536015     0.053423   -0.066230   -0.021395  
      6.997516  4.024838  1.486338    -0.014231   -0.007189    0.048984  
      4.024838  1.486338  6.997516    -0.004145    0.050684   -0.016713  
      6.997516  1.486338  4.024838    -0.023453   -0.022800    0.025315  
      1.486338  4.024838  6.997516    -0.075912   -0.012559    0.056577  
      4.024838  6.997516  1.486338    -0.000907    0.029645   -0.059672  
      1.269250  6.780427  9.753104    -0.033406   -0.040399   -0.002236  
      6.780427  9.753104  1.269250     0.047461    0.003491   -0.050746  
      9.753104  1.269250  6.780427     0.010594   -0.074233    0.055707  
      4.241927  9.753104  9.753104     0.066446    0.037189   -0.078429  
      6.780427  6.780427  4.241927    -0.023992   -0.011798   -0.014410  
      1.269250  4.241927  1.269250    -0.016303    0.016393    0.065185  
      1.486338  1.486338  9.536015     0.040099   -0.029396    0.032083  
      9.536015  4.024838  4.024838    -0.058475   -0.014099    0.097780  
      6.997516  9.536015  6.997516     0.056028   -0.018598   -0.042138  
      6.997516  6.997516  9.536015    -0.018344   -0.002987   -0.018469  
      1.486338  9.536015  1.486338     0.034115    0.038347   -0.063423  
      1.269250  1.269250  4.241927    -0.008391    0.033553    0.028023  
      6.780427  4.241927  6.780427    -0.089258    0.003355    0.024958  
      9.753104  4.241927  9.753104    -0.034063   -0.058944    0.092043  
      4.241927  6.780427  6.780427    -0.041752    0.054349   -0.041268  
      4.024838  9.536015  4.024838     0.036720    0.046482   -0.084166  
      9.536015  1.486338  1.486338     0.020791    0.001513    0.074111  
      9.536015  6.997516  6.997516    -0.015739   -0.081842    0.002274  
      4.241927  1.269250  1.269250     0.046804    0.022036   -0.039061  
      9.753104  9.753104  4.241927     0.039115   -0.017441   -0.011714  
      4.024838  4.024838  9.536015    -0.031668    0.033847    0.007782  
 
 166 f/i=    0.020257 THz     0.127277 2PiTHz    0.675693 cm-1     0.083775 meV
             X         Y         Z           dx          dy          dz
      0.000000  0.000000  0.000000    -0.000139   -0.001118   -0.170397  
      0.000000  5.511177  5.511177    -0.000139   -0.001118   -0.170397  
      5.511177  5.511177  0.000000    -0.000139   -0.001118   -0.170397  
      5.511177  0.000000  5.511177    -0.000139   -0.001118   -0.170397  
      8.266765  2.755588  8.266765    -0.000139   -0.001118   -0.170397  
      2.755588  2.755588  2.755588    -0.000139   -0.001118   -0.170397  
      2.755588  8.266765  8.266765    -0.000139   -0.001118   -0.170397  
      8.266765  8.266765  2.755588    -0.000139   -0.001118   -0.170397  
      6.888971  6.888971  6.888971    -0.000878   -0.001882   -0.175460  
      4.133383  9.644559  1.377794     0.000581   -0.000423   -0.175449  
      9.644559  1.377794  4.133383    -0.000868   -0.000421   -0.175451  
      1.377794  4.133383  9.644559     0.000591   -0.001880   -0.175459  
      9.644559  4.133383  1.377794     0.000581   -0.000423   -0.175449  
      4.133383  1.377794  9.644559    -0.000868   -0.000421   -0.175451  
      1.377794  9.644559  4.133383     0.000591   -0.001880   -0.175459  
      6.888971  1.377794  1.377794    -0.000878   -0.001882   -0.175460  
      4.133383  4.133383  6.888971     0.000581   -0.000423   -0.175449  
      9.644559  6.888971  9.644559    -0.000868   -0.000421   -0.175451  
      9.644559  9.644559  6.888971     0.000581   -0.000423   -0.175449  
      4.133383  6.888971  4.133383    -0.000868   -0.000421   -0.175451  
      1.377794  6.888971  1.377794    -0.000878   -0.001882   -0.175460  
      6.888971  4.133383  4.133383     0.000591   -0.001880   -0.175459  
      6.888971  9.644559  9.644559     0.000591   -0.001880   -0.175459  
      1.377794  1.377794  6.888971    -0.000878   -0.001882   -0.175460  
      4.241927  4.241927  4.241927     0.000266   -0.000269   -0.092717  
      6.780427  1.269250  9.753104    -0.000413   -0.000948   -0.092722  
      1.269250  9.753104  6.780427     0.000262   -0.000948   -0.092721  
      9.753104  6.780427  1.269250    -0.000418   -0.000269   -0.092718  
      1.486338  6.997516  4.024838    -0.000413   -0.000948   -0.092722  
      9.536015  9.536015  9.536015     0.000266   -0.000269   -0.092717  
      6.997516  4.024838  1.486338     0.000262   -0.000948   -0.092721  
      4.024838  1.486338  6.997516    -0.000418   -0.000269   -0.092718  
      6.997516  1.486338  4.024838    -0.000413   -0.000948   -0.092722  
      1.486338  4.024838  6.997516     0.000262   -0.000948   -0.092721  
      4.024838  6.997516  1.486338    -0.000418   -0.000269   -0.092718  
      1.269250  6.780427  9.753104    -0.000413   -0.000948   -0.092722  
      6.780427  9.753104  1.269250     0.000262   -0.000948   -0.092721  
      9.753104  1.269250  6.780427    -0.000418   -0.000269   -0.092718  
      4.241927  9.753104  9.753104     0.000266   -0.000269   -0.092717  
      6.780427  6.780427  4.241927    -0.000413   -0.000948   -0.092722  
      1.269250  4.241927  1.269250     0.000262   -0.000948   -0.092721  
      1.486338  1.486338  9.536015    -0.000413   -0.000948   -0.092722  
      9.536015  4.024838  4.024838     0.000266   -0.000269   -0.092717  
      6.997516  9.536015  6.997516     0.000262   -0.000948   -0.092721  
      6.997516  6.997516  9.536015    -0.000413   -0.000948   -0.092722  
      1.486338  9.536015  1.486338     0.000262   -0.000948   -0.092721  
      1.269250  1.269250  4.241927    -0.000413   -0.000948   -0.092722  
      6.780427  4.241927  6.780427     0.000262   -0.000948   -0.092721  
      9.753104  4.241927  9.753104     0.000266   -0.000269   -0.092717  
      4.241927  6.780427  6.780427    -0.000418   -0.000269   -0.092718  
      4.024838  9.536015  4.024838     0.000266   -0.000269   -0.092717  
      9.536015  1.486338  1.486338    -0.000418   -0.000269   -0.092718  
      9.536015  6.997516  6.997516    -0.000418   -0.000269   -0.092718  
      4.241927  1.269250  1.269250    -0.000418   -0.000269   -0.092718  
      9.753104  9.753104  4.241927     0.000266   -0.000269   -0.092717  
      4.024838  4.024838  9.536015     0.000266   -0.000269   -0.092717  
 
 167 f/i=    0.020257 THz     0.127277 2PiTHz    0.675693 cm-1     0.083775 meV
             X         Y         Z           dx          dy          dz
      0.000000  0.000000  0.000000     0.144046   -0.091032    0.000480  
      0.000000  5.511177  5.511177     0.144046   -0.091032    0.000480  
      5.511177  5.511177  0.000000     0.144046   -0.091032    0.000480  
      5.511177  0.000000  5.511177     0.144046   -0.091032    0.000480  
      8.266765  2.755588  8.266765     0.144046   -0.091032    0.000480  
      2.755588  2.755588  2.755588     0.144046   -0.091032    0.000480  
      2.755588  8.266765  8.266765     0.144046   -0.091032    0.000480  
      8.266765  8.266765  2.755588     0.144046   -0.091032    0.000480  
      6.888971  6.888971  6.888971     0.147934   -0.093116    0.000721  
      4.133383  9.644559  1.377794     0.147930   -0.093120    0.000267  
      9.644559  1.377794  4.133383     0.148713   -0.094353    0.001500  
      1.377794  4.133383  9.644559     0.148709   -0.094349   -0.000512  
      9.644559  4.133383  1.377794     0.147930   -0.093120    0.000267  
      4.133383  1.377794  9.644559     0.148713   -0.094353    0.001500  
      1.377794  9.644559  4.133383     0.148709   -0.094349   -0.000512  
      6.888971  1.377794  1.377794     0.147934   -0.093116    0.000721  
      4.133383  4.133383  6.888971     0.147930   -0.093120    0.000267  
      9.644559  6.888971  9.644559     0.148713   -0.094353    0.001500  
      9.644559  9.644559  6.888971     0.147930   -0.093120    0.000267  
      4.133383  6.888971  4.133383     0.148713   -0.094353    0.001500  
      1.377794  6.888971  1.377794     0.147934   -0.093116    0.000721  
      6.888971  4.133383  4.133383     0.148709   -0.094349   -0.000512  
      6.888971  9.644559  9.644559     0.148709   -0.094349   -0.000512  
      1.377794  1.377794  6.888971     0.147934   -0.093116    0.000721  
      4.241927  4.241927  4.241927     0.078561   -0.049822    0.000155  
      6.780427  1.269250  9.753104     0.078563   -0.049820    0.000367  
      1.269250  9.753104  6.780427     0.078199   -0.049246   -0.000207  
      9.753104  6.780427  1.269250     0.078201   -0.049248    0.000729  
      1.486338  6.997516  4.024838     0.078563   -0.049820    0.000367  
      9.536015  9.536015  9.536015     0.078561   -0.049822    0.000155  
      6.997516  4.024838  1.486338     0.078199   -0.049246   -0.000207  
      4.024838  1.486338  6.997516     0.078201   -0.049248    0.000729  
      6.997516  1.486338  4.024838     0.078563   -0.049820    0.000367  
      1.486338  4.024838  6.997516     0.078199   -0.049246   -0.000207  
      4.024838  6.997516  1.486338     0.078201   -0.049248    0.000729  
      1.269250  6.780427  9.753104     0.078563   -0.049820    0.000367  
      6.780427  9.753104  1.269250     0.078199   -0.049246   -0.000207  
      9.753104  1.269250  6.780427     0.078201   -0.049248    0.000729  
      4.241927  9.753104  9.753104     0.078561   -0.049822    0.000155  
      6.780427  6.780427  4.241927     0.078563   -0.049820    0.000367  
      1.269250  4.241927  1.269250     0.078199   -0.049246   -0.000207  
      1.486338  1.486338  9.536015     0.078563   -0.049820    0.000367  
      9.536015  4.024838  4.024838     0.078561   -0.049822    0.000155  
      6.997516  9.536015  6.997516     0.078199   -0.049246   -0.000207  
      6.997516  6.997516  9.536015     0.078563   -0.049820    0.000367  
      1.486338  9.536015  1.486338     0.078199   -0.049246   -0.000207  
      1.269250  1.269250  4.241927     0.078563   -0.049820    0.000367  
      6.780427  4.241927  6.780427     0.078199   -0.049246   -0.000207  
      9.753104  4.241927  9.753104     0.078561   -0.049822    0.000155  
      4.241927  6.780427  6.780427     0.078201   -0.049248    0.000729  
      4.024838  9.536015  4.024838     0.078561   -0.049822    0.000155  
      9.536015  1.486338  1.486338     0.078201   -0.049248    0.000729  
      9.536015  6.997516  6.997516     0.078201   -0.049248    0.000729  
      4.241927  1.269250  1.269250     0.078201   -0.049248    0.000729  
      9.753104  9.753104  4.241927     0.078561   -0.049822    0.000155  
      4.024838  4.024838  9.536015     0.078561   -0.049822    0.000155  
 
 168 f/i=    0.020257 THz     0.127277 2PiTHz    0.675693 cm-1     0.083775 meV
             X         Y         Z           dx          dy          dz
      0.000000  0.000000  0.000000    -0.091034   -0.144042    0.001020  
      0.000000  5.511177  5.511177    -0.091034   -0.144042    0.001020  
      5.511177  5.511177  0.000000    -0.091034   -0.144042    0.001020  
      5.511177  0.000000  5.511177    -0.091034   -0.144042    0.001020  
      8.266765  2.755588  8.266765    -0.091034   -0.144042    0.001020  
      2.755588  2.755588  2.755588    -0.091034   -0.144042    0.001020  
      2.755588  8.266765  8.266765    -0.091034   -0.144042    0.001020  
      8.266765  8.266765  2.755588    -0.091034   -0.144042    0.001020  
      6.888971  6.888971  6.888971    -0.094348   -0.148703    0.000044  
      4.133383  9.644559  1.377794    -0.094357   -0.148712    0.002056  
      9.644559  1.377794  4.133383    -0.093115   -0.147933    0.001277  
      1.377794  4.133383  9.644559    -0.093123   -0.147924    0.000823  
      9.644559  4.133383  1.377794    -0.094357   -0.148712    0.002056  
      4.133383  1.377794  9.644559    -0.093115   -0.147933    0.001277  
      1.377794  9.644559  4.133383    -0.093123   -0.147924    0.000823  
      6.888971  1.377794  1.377794    -0.094348   -0.148703    0.000044  
      4.133383  4.133383  6.888971    -0.094357   -0.148712    0.002056  
      9.644559  6.888971  9.644559    -0.093115   -0.147933    0.001277  
      9.644559  9.644559  6.888971    -0.094357   -0.148712    0.002056  
      4.133383  6.888971  4.133383    -0.093115   -0.147933    0.001277  
      1.377794  6.888971  1.377794    -0.094348   -0.148703    0.000044  
      6.888971  4.133383  4.133383    -0.093123   -0.147924    0.000823  
      6.888971  9.644559  9.644559    -0.093123   -0.147924    0.000823  
      1.377794  1.377794  6.888971    -0.094348   -0.148703    0.000044  
      4.241927  4.241927  4.241927    -0.049250   -0.078200    0.001023  
      6.780427  1.269250  9.753104    -0.049246   -0.078196    0.000086  
      1.269250  9.753104  6.780427    -0.049824   -0.078558    0.000449  
      9.753104  6.780427  1.269250    -0.049820   -0.078562    0.000661  
      1.486338  6.997516  4.024838    -0.049246   -0.078196    0.000086  
      9.536015  9.536015  9.536015    -0.049250   -0.078200    0.001023  
      6.997516  4.024838  1.486338    -0.049824   -0.078558    0.000449  
      4.024838  1.486338  6.997516    -0.049820   -0.078562    0.000661  
      6.997516  1.486338  4.024838    -0.049246   -0.078196    0.000086  
      1.486338  4.024838  6.997516    -0.049824   -0.078558    0.000449  
      4.024838  6.997516  1.486338    -0.049820   -0.078562    0.000661  
      1.269250  6.780427  9.753104    -0.049246   -0.078196    0.000086  
      6.780427  9.753104  1.269250    -0.049824   -0.078558    0.000449  
      9.753104  1.269250  6.780427    -0.049820   -0.078562    0.000661  
      4.241927  9.753104  9.753104    -0.049250   -0.078200    0.001023  
      6.780427  6.780427  4.241927    -0.049246   -0.078196    0.000086  
      1.269250  4.241927  1.269250    -0.049824   -0.078558    0.000449  
      1.486338  1.486338  9.536015    -0.049246   -0.078196    0.000086  
      9.536015  4.024838  4.024838    -0.049250   -0.078200    0.001023  
      6.997516  9.536015  6.997516    -0.049824   -0.078558    0.000449  
      6.997516  6.997516  9.536015    -0.049246   -0.078196    0.000086  
      1.486338  9.536015  1.486338    -0.049824   -0.078558    0.000449  
      1.269250  1.269250  4.241927    -0.049246   -0.078196    0.000086  
      6.780427  4.241927  6.780427    -0.049824   -0.078558    0.000449  
      9.753104  4.241927  9.753104    -0.049250   -0.078200    0.001023  
      4.241927  6.780427  6.780427    -0.049820   -0.078562    0.000661  
      4.024838  9.536015  4.024838    -0.049250   -0.078200    0.001023  
      9.536015  1.486338  1.486338    -0.049820   -0.078562    0.000661  
      9.536015  6.997516  6.997516    -0.049820   -0.078562    0.000661  
      4.241927  1.269250  1.269250    -0.049820   -0.078562    0.000661  
      9.753104  9.753104  4.241927    -0.049250   -0.078200    0.001023  
      4.024838  4.024838  9.536015    -0.049250   -0.078200    0.001023  
 


--------------------------------------------------------------------------------------------------------




 MACROSCOPIC STATIC DIELECTRIC TENSOR IONIC CONTRIBUTION
 ------------------------------------------------------
           6.630233    -0.000000    -0.000000
          -0.000000     6.630270    -0.000000
          -0.000000    -0.000000     6.630369
 ------------------------------------------------------


 ELASTIC MODULI IONIC CONTR (kBar)
 Direction    XX          YY          ZZ          XY          YZ          ZX
 --------------------------------------------------------------------------------
 XX        -257.1562     55.3617     55.3617     -0.0000      0.0000     -0.0000
 YY          55.3617   -257.1562     55.3617     -0.0000     -0.0000     -0.0000
 ZZ          55.3617     55.3617   -257.1562      0.0000      0.0000      0.0000
 XY          -0.0000     -0.0000      0.0000    -31.6599      0.0000      0.0000
 YZ           0.0000     -0.0000      0.0000      0.0000    -31.6599      0.0000
 ZX          -0.0000     -0.0000      0.0000      0.0000      0.0000    -31.6599
 --------------------------------------------------------------------------------


 PIEZOELECTRIC TENSOR IONIC CONTR  for field in x, y, z        (C/m^2)
          XX          YY          ZZ          XY          YZ          ZX
  --------------------------------------------------------------------------------
  x     0.00003    -0.00002    -0.00002    -0.00000    -0.00000     0.00000
  y    -0.00003     0.00003    -0.00003     0.00000     0.00000    -0.00000
  z    -0.00003    -0.00003     0.00003     0.00000     0.00000    -0.00000


--------------------------------------------------------------------------------------------------------


 writing wavefunctions
     LOOP+:  cpu time13529.3604: real time13573.2812
    4ORBIT:  cpu time    0.0000: real time    0.0000
 BZINTS: Fermi energy:  2.415846;336.000000 electrons
         Band energy:-921.682945;  BLOECHL correction:  0.000000

 total amount of memory used by VASP MPI-rank0   188637. kBytes
=======================================================================

   base      :      30000. kBytes
   nonl-proj :     117418. kBytes
   fftplans  :       4062. kBytes
   grid      :      18869. kBytes
   one-center:        870. kBytes
   wavefun   :      17418. kBytes
 
  
  
 General timing and accounting informations for this job:
 ========================================================
  
                  Total CPU time used (sec):    13537.651
                            User time (sec):    13285.728
                          System time (sec):      251.924
                         Elapsed time (sec):    13582.033
  
                   Maximum memory used (kb):      964632.
                   Average memory used (kb):           0.
  
                          Minor page faults:       242215
                          Major page faults:            8
                 Voluntary context switches:         1842
