 vasp.5.4.4.18Apr17-6-g9f103f2a35 (build Nov 15 2018 17:56:05) complex          
  
 executed on             LinuxIFC date 2021.08.04  19:19:32
 running on   36 total cores
 distrk:  each k-point on   36 cores,    1 groups
 distr:  one band on NCORES_PER_BAND=   1 cores,   36 groups


--------------------------------------------------------------------------------------------------------


 INCAR:
 POTCAR:    PAW_PBE H 15Jun2001                   

 ----------------------------------------------------------------------------- 
|                                                                             |
|           W    W    AA    RRRRR   N    N  II  N    N   GGGG   !!!           |
|           W    W   A  A   R    R  NN   N  II  NN   N  G    G  !!!           |
|           W    W  A    A  R    R  N N  N  II  N N  N  G       !!!           |
|           W WW W  AAAAAA  RRRRR   N  N N  II  N  N N  G  GGG   !            |
|           WW  WW  A    A  R   R   N   NN  II  N   NN  G    G                |
|           W    W  A    A  R    R  N    N  II  N    N   GGGG   !!!           |
|                                                                             |
|      For optimal performance we recommend to set                            |
|        NCORE= 4 - approx SQRT( number of cores)                             |
|      NCORE specifies how many cores store one orbital (NPAR=cpu/NCORE).     |
|      This setting can  greatly improve the performance of VASP for DFT.     |
|      The default,   NCORE=1            might be grossly inefficient         |
|      on modern multi-core architectures or massively parallel machines.     |
|      Do your own testing !!!!                                               |
|      Unfortunately you need to use the default for GW and RPA calculations. |
|      (for HF NCORE is supported but not extensively tested yet)             |
|                                                                             |
 ----------------------------------------------------------------------------- 

 POTCAR:    PAW_PBE H 15Jun2001                   
   VRHFIN =H: ultrasoft test                                                    
   LEXCH  = PE                                                                  
   EATOM  =    12.4884 eV,    0.9179 Ry                                         
                                                                                
   TITEL  = PAW_PBE H 15Jun2001                                                 
   LULTRA =        F    use ultrasoft PP ?                                      
   IUNSCR =        0    unscreen: 0-lin 1-nonlin 2-no                           
   RPACOR =    0.000    partial core radius                                     
   POMASS =    1.000; ZVAL   =    1.000    mass and valenz                      
   RCORE  =    1.100    outmost cutoff radius                                   
   RWIGS  =    0.700; RWIGS  =    0.370    wigner-seitz radius (au A)           
   ENMAX  =  250.000; ENMIN  =  200.000 eV                                      
   RCLOC  =    0.701    cutoff for local pot                                    
   LCOR   =        T    correct aug charges                                     
   LPAW   =        T    paw PP                                                  
   EAUG   =  400.000                                                            
   RMAX   =    1.123    core radius for proj-oper                               
   RAUG   =    1.200    factor for augmentation sphere                          
   RDEP   =    1.112    radius for radial grids                                 
   RDEPT  =    0.926    core radius for aug-charge                              
                                                                                
   Atomic configuration                                                         
    2 entries                                                                   
     n  l   j            E        occ.                                          
     1  0  0.50        -6.4927   1.0000                                         
     2  1  0.50        -3.4015   0.0000                                         
   Description                                                                  
     l       E           TYP  RCUT    TYP  RCUT                                 
     0     -6.4927494     23  1.100                                             
     0      6.8029130     23  1.100                                             
     1     -4.0817478     23  1.100                                             
  local pseudopotential read in
  atomic valenz-charges read in
  non local Contribution for L=           0  read in
    real space projection operators read in
  non local Contribution for L=           0  read in
    real space projection operators read in
  non local Contribution for L=           1  read in
    real space projection operators read in
    PAW grid and wavefunctions read in
 
   number of l-projection  operators is LMAX  =           3
   number of lm-projection operators is LMMAX =           5
 

 ----------------------------------------------------------------------------- 
|                                                                             |
|  ADVICE TO THIS USER RUNNING 'VASP/VAMP'   (HEAR YOUR MASTER'S VOICE ...):  |
|                                                                             |
|      You enforced a specific xc-type in the INCAR file,                     |
|      a different type was found on the POTCAR file                          |
|          I HOPE YOU KNOW, WHAT YOU ARE  DOING                               |
|                                                                             |
 ----------------------------------------------------------------------------- 

  PAW_PBE H 15Jun2001                   :
 energy of atom  1       EATOM=  -12.4884
 kinetic energy error for atom=    0.0004 (will be added to EATOM!!)
 
 
 POSCAR: CdIn2S4                                 
  positions in direct lattice
  No initial velocities read in
 exchange correlation table for  LEXCH =       14
   RHO(1)=    0.500       N(1)  =     2000
   RHO(2)=  100.500       N(2)  =     4000
 


--------------------------------------------------------------------------------------------------------


 ion  position               nearest neighbor table
   1  0.500  0.500  0.500-
 
  LATTYP: Found a simple cubic cell.
 ALAT       =    11.0223536920
  
  Lattice vectors:
  
 A1 = (  11.0223536920,   0.0000000000,   0.0000000000)
 A2 = (   0.0000000000,  11.0223536920,   0.0000000000)
 A3 = (   0.0000000000,   0.0000000000,  11.0223536920)


Analysis of symmetry for initial positions (statically):
=====================================================================
 Subroutine PRICEL returns:
 Original cell was already a primitive cell.
 

 Routine SETGRP: Setting up the symmetry group for a 
 simple cubic supercell.


 Subroutine GETGRP returns: Found 48 space group operations
 (whereof 48 operations were pure point group operations)
 out of a pool of 48 trial point group operations.


The static configuration has the point symmetry O_h .


Analysis of symmetry for dynamics (positions and initial velocities):
=====================================================================
 Subroutine PRICEL returns:
 Original cell was already a primitive cell.
 

 Routine SETGRP: Setting up the symmetry group for a 
 simple cubic supercell.


 Subroutine GETGRP returns: Found 48 space group operations
 (whereof 48 operations were pure point group operations)
 out of a pool of 48 trial point group operations.


The dynamic configuration has the point symmetry O_h .


 Subroutine INISYM returns: Found 48 space group operations
 (whereof 48 operations are pure point group operations),
 and found     1 'primitive' translations

 
 
 KPOINTS: k-points                                

Automatic generation of k-mesh.
Space group operators:
 irot       det(A)        alpha          n_x          n_y          n_z        tau_x        tau_y        tau_z
    1     1.000000     0.000000     1.000000     0.000000     0.000000     0.000000     0.000000     0.000000
    2    -1.000000     0.000000     1.000000     0.000000     0.000000     0.000000     0.000000     0.000000
    3     1.000000   120.000000    -0.577350    -0.577350    -0.577350     0.000000     0.000000     0.000000
    4    -1.000000   120.000000    -0.577350    -0.577350    -0.577350     0.000000     0.000000     0.000000
    5     1.000000   120.000000     0.577350     0.577350     0.577350     0.000000     0.000000     0.000000
    6    -1.000000   120.000000     0.577350     0.577350     0.577350     0.000000     0.000000     0.000000
    7     1.000000    90.000000     0.000000     0.000000    -1.000000     0.000000     0.000000     0.000000
    8    -1.000000    90.000000     0.000000     0.000000    -1.000000     0.000000     0.000000     0.000000
    9     1.000000   180.000000     0.000000     0.707107     0.707107     0.000000     0.000000     0.000000
   10    -1.000000   180.000000     0.000000     0.707107     0.707107     0.000000     0.000000     0.000000
   11     1.000000    90.000000     0.000000     1.000000     0.000000     0.000000     0.000000     0.000000
   12    -1.000000    90.000000     0.000000     1.000000     0.000000     0.000000     0.000000     0.000000
   13     1.000000   179.999999     0.000000     0.000000     1.000000     0.000000     0.000000     0.000000
   14    -1.000000   179.999999     0.000000     0.000000     1.000000     0.000000     0.000000     0.000000
   15     1.000000   120.000000    -0.577350     0.577350     0.577350     0.000000     0.000000     0.000000
   16    -1.000000   120.000000    -0.577350     0.577350     0.577350     0.000000     0.000000     0.000000
   17     1.000000   120.000000    -0.577350     0.577350    -0.577350     0.000000     0.000000     0.000000
   18    -1.000000   120.000000    -0.577350     0.577350    -0.577350     0.000000     0.000000     0.000000
   19     1.000000    90.000000     0.000000     0.000000     1.000000     0.000000     0.000000     0.000000
   20    -1.000000    90.000000     0.000000     0.000000     1.000000     0.000000     0.000000     0.000000
   21     1.000000    90.000000    -1.000000     0.000000     0.000000     0.000000     0.000000     0.000000
   22    -1.000000    90.000000    -1.000000     0.000000     0.000000     0.000000     0.000000     0.000000
   23     1.000000   180.000000     0.707107     0.000000     0.707107     0.000000     0.000000     0.000000
   24    -1.000000   180.000000     0.707107     0.000000     0.707107     0.000000     0.000000     0.000000
   25     1.000000   120.000000     0.577350    -0.577350     0.577350     0.000000     0.000000     0.000000
   26    -1.000000   120.000000     0.577350    -0.577350     0.577350     0.000000     0.000000     0.000000
   27     1.000000   120.000000    -0.577350    -0.577350     0.577350     0.000000     0.000000     0.000000
   28    -1.000000   120.000000    -0.577350    -0.577350     0.577350     0.000000     0.000000     0.000000
   29     1.000000   180.000000     1.000000     0.000000     0.000000     0.000000     0.000000     0.000000
   30    -1.000000   180.000000     1.000000     0.000000     0.000000     0.000000     0.000000     0.000000
   31     1.000000    90.000000     0.000000    -1.000000     0.000000     0.000000     0.000000     0.000000
   32    -1.000000    90.000000     0.000000    -1.000000     0.000000     0.000000     0.000000     0.000000
   33     1.000000   180.000000     0.707107     0.707107     0.000000     0.000000     0.000000     0.000000
   34    -1.000000   180.000000     0.707107     0.707107     0.000000     0.000000     0.000000     0.000000
   35     1.000000    90.000000     1.000000     0.000000     0.000000     0.000000     0.000000     0.000000
   36    -1.000000    90.000000     1.000000     0.000000     0.000000     0.000000     0.000000     0.000000
   37     1.000000   120.000000     0.577350    -0.577350    -0.577350     0.000000     0.000000     0.000000
   38    -1.000000   120.000000     0.577350    -0.577350    -0.577350     0.000000     0.000000     0.000000
   39     1.000000   180.000000     0.000000     1.000000     0.000000     0.000000     0.000000     0.000000
   40    -1.000000   180.000000     0.000000     1.000000     0.000000     0.000000     0.000000     0.000000
   41     1.000000   120.000000     0.577350     0.577350    -0.577350     0.000000     0.000000     0.000000
   42    -1.000000   120.000000     0.577350     0.577350    -0.577350     0.000000     0.000000     0.000000
   43     1.000000   180.000000     0.000000    -0.707107     0.707107     0.000000     0.000000     0.000000
   44    -1.000000   180.000000     0.000000    -0.707107     0.707107     0.000000     0.000000     0.000000
   45     1.000000   180.000000     0.707107    -0.707107     0.000000     0.000000     0.000000     0.000000
   46    -1.000000   180.000000     0.707107    -0.707107     0.000000     0.000000     0.000000     0.000000
   47     1.000000   180.000000     0.707107     0.000000    -0.707107     0.000000     0.000000     0.000000
   48    -1.000000   180.000000     0.707107     0.000000    -0.707107     0.000000     0.000000     0.000000
 
 Subroutine IBZKPT returns following result:
 ===========================================
 
 Found     10 irreducible k-points:
 
 Following reciprocal coordinates:
            Coordinates               Weight
  0.000000  0.000000  0.000000      1.000000
  0.250000  0.000000  0.000000      6.000000
  0.500000  0.000000  0.000000      3.000000
  0.250000  0.250000  0.000000     12.000000
  0.500000  0.250000  0.000000     12.000000
  0.500000  0.500000  0.000000      3.000000
  0.250000  0.250000  0.250000      8.000000
  0.500000  0.250000  0.250000     12.000000
  0.500000  0.500000  0.250000      6.000000
  0.500000  0.500000  0.500000      1.000000
 
 Following cartesian coordinates:
            Coordinates               Weight
  0.000000  0.000000  0.000000      1.000000
  0.022681  0.000000  0.000000      6.000000
  0.045362  0.000000  0.000000      3.000000
  0.022681  0.022681  0.000000     12.000000
  0.045362  0.022681  0.000000     12.000000
  0.045362  0.045362  0.000000      3.000000
  0.022681  0.022681  0.022681      8.000000
  0.045362  0.022681  0.022681     12.000000
  0.045362  0.045362  0.022681      6.000000
  0.045362  0.045362  0.045362      1.000000
 
 TETIRR: Found     30 inequivalent tetrahedra from      384


--------------------------------------------------------------------------------------------------------




 Dimension of arrays:
   k-points           NKPTS =     10   k-points in BZ     NKDIM =     10   number of bands    NBANDS=     36
   number of dos      NEDOS =   2001   number of ions     NIONS =      1
   non local maximal  LDIM  =      3   non local SUM 2l+1 LMDIM =      5
   total plane-waves  NPLWV = 343000
   max r-space proj   IRMAX =      1   max aug-charges    IRDMAX=   1444
   dimension x,y,z NGX =    70 NGY =   70 NGZ =   70
   dimension x,y,z NGXF=   140 NGYF=  140 NGZF=  140
   support grid    NGXF=   140 NGYF=  140 NGZF=  140
   ions per type =               1
   NGX,Y,Z   is equivalent  to a cutoff of  10.56, 10.56, 10.56 a.u.
   NGXF,Y,Z  is equivalent  to a cutoff of  21.12, 21.12, 21.12 a.u.

 SYSTEM =  unknown system                          
 POSCAR =  CdIn2S4                                 

 Startparameter for this run:
   NWRITE =      2    write-flag & timer
   PREC   = normal    normal or accurate (medium, high low for compatibility)
   ISTART =      0    job   : 0-new  1-cont  2-samecut
   ICHARG =      2    charge: 1-file 2-atom 10-const
   ISPIN  =      1    spin polarized calculation?
   LNONCOLLINEAR =      F non collinear calculations
   LSORBIT =      F    spin-orbit coupling
   INIWAV =      1    electr: 0-lowe 1-rand  2-diag
   LASPH  =      F    aspherical Exc in radial PAW
   METAGGA=      F    non-selfconsistent MetaGGA calc.

 Electronic Relaxation 1
   ENCUT  =  600.0 eV  44.10 Ry    6.64 a.u.  22.01 22.01 22.01*2*pi/ulx,y,z
   ENINI  =  600.0     initial cutoff
   ENAUG  =  400.0 eV  augmentation charge cutoff
   NELM   =      1;   NELMIN=  2; NELMDL= -5     # of ELM steps 
   EDIFF  = 0.1E-05   stopping-criterion for ELM
   LREAL  =      F    real-space projection
   NLSPLINE    = F    spline interpolate recip. space projectors
   LCOMPAT=      F    compatible to vasp.4.4
   GGA_COMPAT  = T    GGA compatible to vasp.4.4-vasp.4.6
   LMAXPAW     = -100 max onsite density
   LMAXMIX     =    2 max onsite mixed and CHGCAR
   VOSKOWN=      0    Vosko Wilk Nusair interpolation
   ROPT   =    0.00000
 Ionic relaxation
   EDIFFG = 0.1E-04   stopping-criterion for IOM
   NSW    =      0    number of steps for IOM
   NBLOCK =      1;   KBLOCK =      1    inner block; outer block 
   IBRION =     -1    ionic relax: 0-MD 1-quasi-New 2-CG
   NFREE  =      0    steps in history (QN), initial steepest desc. (CG)
   ISIF   =      2    stress and relaxation
   IWAVPR =     10    prediction:  0-non 1-charg 2-wave 3-comb
   ISYM   =      2    0-nonsym 1-usesym 2-fastsym
   LCORR  =      T    Harris-Foulkes like correction to forces

   POTIM  = 0.5000    time-step for ionic-motion
   TEIN   =    0.0    initial temperature
   TEBEG  =    0.0;   TEEND  =   0.0 temperature during run
   SMASS  =  -3.00    Nose mass-parameter (am)
   estimated Nose-frequenzy (Omega)   =  0.10E-29 period in steps =****** mass=  -0.278E-26a.u.
   SCALEE = 1.0000    scale energy and forces
   NPACO  =    256;   APACO  = 16.0  distance and # of slots for P.C.
   PSTRESS=    0.0 pullay stress

  Mass of Ions in am
   POMASS =   1.00
  Ionic Valenz
   ZVAL   =   1.00
  Atomic Wigner-Seitz radii
   RWIGS  =  -1.00
  virtual crystal weights 
   VCA    =   1.00
   NELECT =       1.0000    total number of electrons
   NUPDOWN=      -1.0000    fix difference up-down

 DOS related values:
   EMIN   = -20.00;   EMAX   = 20.00  energy-range for DOS
   EFERMI =   0.00
   ISMEAR =    -4;   SIGMA  =   0.20  broadening in eV -4-tet -1-fermi 0-gaus

 Electronic relaxation 2 (details)
   IALGO  =     38    algorithm
   LDIAG  =      T    sub-space diagonalisation (order eigenvalues)
   LSUBROT=      F    optimize rotation matrix (better conditioning)
   TURBO    =      0    0=normal 1=particle mesh
   IRESTART =      0    0=no restart 2=restart with 2 vectors
   NREBOOT  =      0    no. of reboots
   NMIN     =      0    reboot dimension
   EREF     =   0.00    reference energy to select bands
   IMIX   =      4    mixing-type and parameters
     AMIX     =   0.40;   BMIX     =  1.00
     AMIX_MAG =   1.60;   BMIX_MAG =  1.00
     AMIN     =   0.10
     WC   =   100.;   INIMIX=   1;  MIXPRE=   1;  MAXMIX= -45

 Intra band minimization:
   WEIMIN = 0.0000     energy-eigenvalue tresh-hold
   EBREAK =  0.69E-08  absolut break condition
   DEPER  =   0.30     relativ break condition  

   TIME   =   0.40     timestep for ELM

  volume/ion in A,a.u.               =    1339.13      9036.90
  Fermi-wavevector in a.u.,A,eV,Ry     =   0.148525  0.280672  0.300141  0.022060
  Thomas-Fermi vector in A             =   0.821777
 
 Write flags
   LWAVE        =      T    write WAVECAR
   LDOWNSAMPLE  =      F    k-point downsampling of WAVECAR
   LCHARG       =      T    write CHGCAR
   LVTOT        =      F    write LOCPOT, total local potential
   LVHAR        =      F    write LOCPOT, Hartree potential only
   LELF         =      F    write electronic localiz. function (ELF)
   LORBIT       =      0    0 simple, 1 ext, 2 COOP (PROOUT), +10 PAW based schemes


 Dipole corrections
   LMONO  =      F    monopole corrections only (constant potential shift)
   LDIPOL =      F    correct potential (dipole corrections)
   IDIPOL =      0    1-x, 2-y, 3-z, 4-all directions 
   EPSILON=  1.0000000 bulk dielectric constant

 Exchange correlation treatment:
   GGA     =    PS    GGA type
   LEXCH   =    14    internal setting for exchange type
   VOSKOWN=      0    Vosko Wilk Nusair interpolation
   LHFCALC =     F    Hartree Fock is set to
   LHFONE  =     F    Hartree Fock one center treatment
   AEXX    =    0.0000 exact exchange contribution

 Linear response parameters
   LEPSILON=     F    determine dielectric tensor
   LRPA    =     F    only Hartree local field effects (RPA)
   LNABLA  =     F    use nabla operator in PAW spheres
   LVEL    =     F    velocity operator in full k-point grid
   LINTERFAST=   F  fast interpolation
   KINTER  =     0    interpolate to denser k-point grid
   CSHIFT  =0.1000    complex shift for real part using Kramers Kronig
   OMEGAMAX=  -1.0    maximum frequency
   DEG_THRESHOLD= 0.2000000E-02 threshold for treating states as degnerate
   RTIME   =   -0.100 relaxation time in fs
  (WPLASMAI=    0.000 imaginary part of plasma frequency in eV, 0.658/RTIME)
   DFIELD  = 0.0000000 0.0000000 0.0000000 field for delta impulse in time
 
 Orbital magnetization related:
   ORBITALMAG=     F  switch on orbital magnetization
   LCHIMAG   =     F  perturbation theory with respect to B field
   DQ        =  0.001000  dq finite difference perturbation B field
   LLRAUG    =     F  two centre corrections for induced B field



--------------------------------------------------------------------------------------------------------


 Static calculation
 charge density and potential will be updated during run
 non-spin polarized calculation
 Variant of blocked Davidson
 Davidson routine will perform the subspace rotation
 perform sub-space diagonalisation
    after iterative eigenvector-optimisation
 modified Broyden-mixing scheme, WC =      100.0
 initial mixing is a Kerker type mixing with AMIX =  0.4000 and BMIX =      1.0000
 Hartree-type preconditioning will be used
 using additional bands           35
 reciprocal scheme for non local part
 calculate Harris-corrections to forces 
   (improved forces if not selfconsistent)
 use gradient corrections 
 use of overlap-Matrix (Vanderbilt PP)
 Fermi weights with tetrahedron method witout Bloechl corrections


--------------------------------------------------------------------------------------------------------


  energy-cutoff  :      600.00
  volume of cell :     1339.13
      direct lattice vectors                 reciprocal lattice vectors
    11.022353692  0.000000000  0.000000000     0.090724724  0.000000000  0.000000000
     0.000000000 11.022353692  0.000000000     0.000000000  0.090724724  0.000000000
     0.000000000  0.000000000 11.022353692     0.000000000  0.000000000  0.090724724

  length of vectors
    11.022353692 11.022353692 11.022353692     0.090724724  0.090724724  0.090724724


 
 k-points in units of 2pi/SCALE and weight: k-points                                
   0.00000000  0.00000000  0.00000000       0.016
   0.02268118  0.00000000  0.00000000       0.094
   0.04536236  0.00000000  0.00000000       0.047
   0.02268118  0.02268118  0.00000000       0.188
   0.04536236  0.02268118  0.00000000       0.188
   0.04536236  0.04536236  0.00000000       0.047
   0.02268118  0.02268118  0.02268118       0.125
   0.04536236  0.02268118  0.02268118       0.188
   0.04536236  0.04536236  0.02268118       0.094
   0.04536236  0.04536236  0.04536236       0.016
 
 k-points in reciprocal lattice and weights: k-points                                
   0.00000000  0.00000000  0.00000000       0.016
   0.25000000  0.00000000  0.00000000       0.094
   0.50000000  0.00000000  0.00000000       0.047
   0.25000000  0.25000000  0.00000000       0.188
   0.50000000  0.25000000  0.00000000       0.188
   0.50000000  0.50000000  0.00000000       0.047
   0.25000000  0.25000000  0.25000000       0.125
   0.50000000  0.25000000  0.25000000       0.188
   0.50000000  0.50000000  0.25000000       0.094
   0.50000000  0.50000000  0.50000000       0.016
 
 position of ions in fractional coordinates (direct lattice) 
   0.50000000  0.50000000  0.50000000
 
 position of ions in cartesian coordinates  (Angst):
   5.51117685  5.51117685  5.51117685
 


--------------------------------------------------------------------------------------------------------


 k-point  1 :   0.0000 0.0000 0.0000  plane waves:   44473
 k-point  2 :   0.2500 0.0000 0.0000  plane waves:   44664
 k-point  3 :   0.5000 0.0000 0.0000  plane waves:   44732
 k-point  4 :   0.2500 0.2500 0.0000  plane waves:   44729
 k-point  5 :   0.5000 0.2500 0.0000  plane waves:   44700
 k-point  6 :   0.5000 0.5000 0.0000  plane waves:   44736
 k-point  7 :   0.2500 0.2500 0.2500  plane waves:   44689
 k-point  8 :   0.5000 0.2500 0.2500  plane waves:   44706
 k-point  9 :   0.5000 0.5000 0.2500  plane waves:   44708
 k-point 10 :   0.5000 0.5000 0.5000  plane waves:   44720

 maximum and minimum number of plane-waves per node :     44736    44473

 maximum number of plane-waves:     44736
 maximum index in each direction: 
   IXMAX=   22   IYMAX=   22   IZMAX=   22
   IXMIN=  -22   IYMIN=  -22   IZMIN=  -22


 serial   3D FFT for wavefunctions
 parallel 3D FFT for charge:
    minimum data exchange during FFTs selected (reduces bandwidth)


 total amount of memory used by VASP MPI-rank0    77440. kBytes
=======================================================================

   base      :      30000. kBytes
   nonl-proj :      18615. kBytes
   fftplans  :       4062. kBytes
   grid      :      17597. kBytes
   one-center:          1. kBytes
   wavefun   :       7165. kBytes
 
     INWAV:  cpu time    0.0000: real time    0.0000
 Broyden mixing: mesh for mixing (old mesh)
   NGX = 45   NGY = 45   NGZ = 45
  (NGX  =140   NGY  =140   NGZ  =140)
  gives a total of  91125 points

 initial charge density was supplied:
 charge density of overlapping atoms calculated
 number of electron       1.0000000 magnetization 
 keeping initial charge density in first step


--------------------------------------------------------------------------------------------------------


 Maximum index for augmentation-charges          121 (set IRDMAX)


--------------------------------------------------------------------------------------------------------


 First call to EWALD:  gamma=   0.161
 Maximum number of real-space cells 3x 3x 3
 Maximum number of reciprocal cells 3x 3x 3

    FEWALD:  cpu time    0.0015: real time    0.0016


--------------------------------------- Iteration      1(   1)  ---------------------------------------


    POTLOK:  cpu time    0.0627: real time    0.0661
    SETDIJ:  cpu time    0.0014: real time    0.0015
     EDDAV:  cpu time    0.8620: real time    0.8645
 BZINTS: Fermi energy: -4.137511;  1.000000 electrons
         Band energy:  -4.264260;  BLOECHL correction:  0.000000
       DOS:  cpu time    0.0016: real time    0.0016
    --------------------------------------------
      LOOP:  cpu time    0.9276: real time    0.9336

 eigenvalue-minimisations  :   720
 total energy-change (2. order) : 0.2089936E+01  (-0.6559280E+01)
 number of electron       1.0000000 magnetization 
 augmentation part        1.0000000 magnetization 

 Free energy of the ion-electron system (eV)
  ---------------------------------------------------
  alpha Z        PSCENC =         0.00181922
  Ewald energy   TEWEN  =        -1.85334644
  -Hartree energ DENC   =        -6.04544666
  -exchange      EXHF   =         0.00000000
  -V(xc)+E(xc)   XCENC  =         1.90538123
  PAW double counting   =         2.21088891       -2.21806133
  entropy T*S    EENTRO =         0.00000000
  eigenvalues    EBANDS =        -4.26426036
  atomic energy  EATOM  =        12.35296160
  Solvation  Ediel_sol  =         0.00000000
  ---------------------------------------------------
  free energy    TOTEN  =         2.08993617 eV

  energy without entropy =        2.08993617  energy(sigma->0) =        2.08993617


--------------------------------------------------------------------------------------------------------




 average (electrostatic) potential at core
  the test charge radii are     0.5201
  (the norm of the test charge is              1.0000)
       1 -41.5048
 
 
 
 E-fermi :  -4.1375     XC(G=0):  -0.3325     alpha+bet : -0.0206


 k-point     1 :       0.0000    0.0000    0.0000
  band No.  band energies     occupation 
      1      -4.2917      1.79274
      2      -0.0074      0.00000
      3       1.0383      0.00000
      4       1.0816      0.00000
      5       1.1926      0.00000
      6       1.5086      0.00000
      7       1.6343      0.00000
      8       1.7149      0.00000
      9       2.6295      0.00000
     10       2.7560      0.00000
     11       2.8580      0.00000
     12       2.9928      0.00000
     13       3.0769      0.00000
     14       3.3264      0.00000
     15       3.4590      0.00000
     16       3.6267      0.00000
     17       3.9351      0.00000
     18       4.0704      0.00000
     19       4.3241      0.00000
     20       4.8205      0.00000
     21       5.0032      0.00000
     22       5.2942      0.00000
     23       5.6719      0.00000
     24       5.9689      0.00000
     25       6.3587      0.00000
     26       6.5475      0.00000
     27       6.6728      0.00000
     28       7.1237      0.00000
     29       7.2749      0.00000
     30       7.5693      0.00000
     31       7.7417      0.00000
     32       7.8396      0.00000
     33       8.1886      0.00000
     34       8.4911      0.00000
     35       8.9740      0.00000
     36       9.3165      0.00000

 k-point     2 :       0.2500    0.0000    0.0000
  band No.  band energies     occupation 
      1      -4.4202      1.57943
      2      -0.0331      0.00000
      3       0.6065      0.00000
      4       1.2869      0.00000
      5       1.3865      0.00000
      6       1.5431      0.00000
      7       1.6313      0.00000
      8       2.0419      0.00000
      9       2.1944      0.00000
     10       2.2355      0.00000
     11       2.5139      0.00000
     12       2.6259      0.00000
     13       2.9241      0.00000
     14       3.0712      0.00000
     15       3.4975      0.00000
     16       3.6307      0.00000
     17       3.9116      0.00000
     18       4.1804      0.00000
     19       4.4728      0.00000
     20       4.5682      0.00000
     21       4.9305      0.00000
     22       5.3231      0.00000
     23       5.5519      0.00000
     24       5.8470      0.00000
     25       6.2280      0.00000
     26       6.5784      0.00000
     27       6.7217      0.00000
     28       6.9430      0.00000
     29       7.1038      0.00000
     30       7.3162      0.00000
     31       7.7318      0.00000
     32       8.1438      0.00000
     33       8.3984      0.00000
     34       8.8026      0.00000
     35       9.0442      0.00000
     36       9.5478      0.00000

 k-point     3 :       0.5000    0.0000    0.0000
  band No.  band energies     occupation 
      1      -3.4749      0.14437
      2       0.1804      0.00000
      3       0.4776      0.00000
      4       1.2511      0.00000
      5       1.3903      0.00000
      6       1.5506      0.00000
      7       1.7222      0.00000
      8       1.7896      0.00000
      9       1.8475      0.00000
     10       2.0483      0.00000
     11       2.4829      0.00000
     12       2.9958      0.00000
     13       3.1534      0.00000
     14       3.4006      0.00000
     15       3.5184      0.00000
     16       3.6215      0.00000
     17       3.9795      0.00000
     18       4.1992      0.00000
     19       4.5924      0.00000
     20       4.8355      0.00000
     21       4.9892      0.00000
     22       5.1954      0.00000
     23       5.7070      0.00000
     24       5.8744      0.00000
     25       6.1818      0.00000
     26       6.4263      0.00000
     27       6.6051      0.00000
     28       6.9784      0.00000
     29       7.3300      0.00000
     30       7.7012      0.00000
     31       7.7488      0.00000
     32       8.2327      0.00000
     33       8.3559      0.00000
     34       8.8218      0.00000
     35       9.0312      0.00000
     36       9.6407      0.00000

 k-point     4 :       0.2500    0.2500    0.0000
  band No.  band energies     occupation 
      1      -4.2962      1.40558
      2       0.0954      0.00000
      3       0.6224      0.00000
      4       0.8418      0.00000
      5       1.3295      0.00000
      6       1.5696      0.00000
      7       1.8114      0.00000
      8       2.1667      0.00000
      9       2.2123      0.00000
     10       2.4748      0.00000
     11       2.5930      0.00000
     12       2.9033      0.00000
     13       3.0634      0.00000
     14       3.4860      0.00000
     15       3.6840      0.00000
     16       3.8817      0.00000
     17       4.0440      0.00000
     18       4.4403      0.00000
     19       4.6030      0.00000
     20       4.9050      0.00000
     21       5.3728      0.00000
     22       5.5477      0.00000
     23       5.9077      0.00000
     24       6.1494      0.00000
     25       6.2376      0.00000
     26       6.6275      0.00000
     27       6.8303      0.00000
     28       7.0101      0.00000
     29       7.3212      0.00000
     30       7.4989      0.00000
     31       8.0478      0.00000
     32       8.1608      0.00000
     33       8.7295      0.00000
     34       9.0180      0.00000
     35       9.3886      0.00000
     36       9.5404      0.00000

 k-point     5 :       0.5000    0.2500    0.0000
  band No.  band energies     occupation 
      1      -4.2133      1.09146
      2       0.2589      0.00000
      3       0.3655      0.00000
      4       1.0071      0.00000
      5       1.0517      0.00000
      6       1.6891      0.00000
      7       1.7873      0.00000
      8       1.9145      0.00000
      9       2.2566      0.00000
     10       2.3479      0.00000
     11       2.5089      0.00000
     12       2.8643      0.00000
     13       3.2428      0.00000
     14       3.4886      0.00000
     15       3.6659      0.00000
     16       3.8212      0.00000
     17       4.0827      0.00000
     18       4.3879      0.00000
     19       4.5872      0.00000
     20       4.8165      0.00000
     21       5.0079      0.00000
     22       5.3949      0.00000
     23       5.5739      0.00000
     24       5.8164      0.00000
     25       6.0190      0.00000
     26       6.2403      0.00000
     27       6.4765      0.00000
     28       6.8951      0.00000
     29       7.0627      0.00000
     30       7.3975      0.00000
     31       7.7583      0.00000
     32       8.0021      0.00000
     33       8.3542      0.00000
     34       8.8340      0.00000
     35       9.1687      0.00000
     36       9.3532      0.00000

 k-point     6 :       0.5000    0.5000    0.0000
  band No.  band energies     occupation 
      1      -4.4592      1.60221
      2       0.4071      0.00000
      3       0.4382      0.00000
      4       0.6301      0.00000
      5       0.6967      0.00000
      6       1.8006      0.00000
      7       1.9649      0.00000
      8       2.0313      0.00000
      9       2.1314      0.00000
     10       2.4207      0.00000
     11       2.4454      0.00000
     12       2.7220      0.00000
     13       2.8286      0.00000
     14       3.4156      0.00000
     15       3.7423      0.00000
     16       3.8461      0.00000
     17       4.1118      0.00000
     18       4.3847      0.00000
     19       4.4709      0.00000
     20       4.6664      0.00000
     21       5.1990      0.00000
     22       5.3247      0.00000
     23       5.4382      0.00000
     24       5.8019      0.00000
     25       6.0048      0.00000
     26       6.2947      0.00000
     27       6.5199      0.00000
     28       6.7093      0.00000
     29       6.8299      0.00000
     30       7.1950      0.00000
     31       7.4006      0.00000
     32       7.8687      0.00000
     33       8.1755      0.00000
     34       8.8812      0.00000
     35       9.2794      0.00000
     36       9.5320      0.00000

 k-point     7 :       0.2500    0.2500    0.2500
  band No.  band energies     occupation 
      1      -3.7538      0.33382
      2       0.1639      0.00000
      3       0.6451      0.00000
      4       0.7821      0.00000
      5       1.0619      0.00000
      6       1.4991      0.00000
      7       1.7135      0.00000
      8       1.9686      0.00000
      9       2.3113      0.00000
     10       2.4965      0.00000
     11       2.6861      0.00000
     12       2.7879      0.00000
     13       3.2283      0.00000
     14       3.3865      0.00000
     15       3.5681      0.00000
     16       3.8558      0.00000
     17       4.1766      0.00000
     18       4.4499      0.00000
     19       4.6002      0.00000
     20       5.0343      0.00000
     21       5.2566      0.00000
     22       5.5174      0.00000
     23       5.6072      0.00000
     24       5.9146      0.00000
     25       6.0489      0.00000
     26       6.5702      0.00000
     27       6.7203      0.00000
     28       6.9219      0.00000
     29       7.1852      0.00000
     30       7.5639      0.00000
     31       7.6665      0.00000
     32       8.0655      0.00000
     33       8.6256      0.00000
     34       8.8120      0.00000
     35       9.1491      0.00000
     36       9.5793      0.00000

 k-point     8 :       0.5000    0.2500    0.2500
  band No.  band energies     occupation 
      1      -3.8417      0.45685
      2       0.3087      0.00000
      3       0.4628      0.00000
      4       0.8805      0.00000
      5       0.9918      0.00000
      6       1.2470      0.00000
      7       1.4603      0.00000
      8       2.0492      0.00000
      9       2.1218      0.00000
     10       2.4985      0.00000
     11       2.7944      0.00000
     12       3.0364      0.00000
     13       3.2463      0.00000
     14       3.5214      0.00000
     15       3.6339      0.00000
     16       3.8703      0.00000
     17       4.1697      0.00000
     18       4.5808      0.00000
     19       4.7013      0.00000
     20       5.0506      0.00000
     21       5.1069      0.00000
     22       5.3523      0.00000
     23       5.7331      0.00000
     24       6.0112      0.00000
     25       6.2763      0.00000
     26       6.6444      0.00000
     27       6.7862      0.00000
     28       7.1115      0.00000
     29       7.4600      0.00000
     30       7.6998      0.00000
     31       8.0931      0.00000
     32       8.5338      0.00000
     33       8.5908      0.00000
     34       8.9593      0.00000
     35       9.1958      0.00000
     36       9.3200      0.00000

 k-point     9 :       0.5000    0.5000    0.2500
  band No.  band energies     occupation 
      1      -4.4800      1.44029
      2       0.4968      0.00000
      3       0.5617      0.00000
      4       0.6857      0.00000
      5       0.7302      0.00000
      6       1.3425      0.00000
      7       1.4279      0.00000
      8       1.6665      0.00000
      9       2.1014      0.00000
     10       2.7787      0.00000
     11       3.0263      0.00000
     12       3.2688      0.00000
     13       3.4861      0.00000
     14       3.6812      0.00000
     15       3.8531      0.00000
     16       4.1518      0.00000
     17       4.3072      0.00000
     18       4.4750      0.00000
     19       4.7076      0.00000
     20       4.7795      0.00000
     21       4.9481      0.00000
     22       5.1649      0.00000
     23       5.3631      0.00000
     24       5.6537      0.00000
     25       5.7899      0.00000
     26       6.1228      0.00000
     27       6.2764      0.00000
     28       6.6860      0.00000
     29       7.0614      0.00000
     30       7.2665      0.00000
     31       7.6687      0.00000
     32       7.9424      0.00000
     33       8.1249      0.00000
     34       8.6267      0.00000
     35       9.0670      0.00000
     36       9.7295      0.00000

 k-point    10 :       0.5000    0.5000    0.5000
  band No.  band energies     occupation 
      1      -4.0220      0.73196
      2       0.7083      0.00000
      3       0.7745      0.00000
      4       0.7840      0.00000
      5       0.9492      0.00000
      6       0.9852      0.00000
      7       1.0807      0.00000
      8       1.1475      0.00000
      9       1.7293      0.00000
     10       3.2814      0.00000
     11       3.5411      0.00000
     12       3.6146      0.00000
     13       3.7276      0.00000
     14       3.8720      0.00000
     15       3.9150      0.00000
     16       4.0408      0.00000
     17       4.1517      0.00000
     18       4.2257      0.00000
     19       4.4394      0.00000
     20       4.5389      0.00000
     21       4.7810      0.00000
     22       4.9444      0.00000
     23       5.3398      0.00000
     24       5.5932      0.00000
     25       5.6983      0.00000
     26       6.0648      0.00000
     27       6.4034      0.00000
     28       6.6137      0.00000
     29       6.7652      0.00000
     30       7.1259      0.00000
     31       7.4353      0.00000
     32       8.0993      0.00000
     33       8.5345      0.00000
     34       8.8208      0.00000
     35       9.3878      0.00000
     36       9.5082      0.00000


--------------------------------------------------------------------------------------------------------


 soft charge-density along one line, spin component           1
         0         1         2         3         4         5         6         7         8         9
 total charge-density along one line
 
 pseudopotential strength for first ion, spin component:           1
 -2.351  -4.051   0.000   0.000   0.000
 -4.051  -6.893   0.000   0.000   0.000
  0.000   0.000  -0.349  -0.000  -0.000
  0.000   0.000  -0.000  -0.349  -0.000
  0.000   0.000  -0.000  -0.000  -0.349
 total augmentation occupancy for first ion, spin component:           1
  1.000   0.000   0.000   0.000   0.000
  0.000   0.000   0.000   0.000   0.000
  0.000   0.000   0.000   0.000   0.000
  0.000   0.000   0.000   0.000   0.000
  0.000   0.000   0.000   0.000   0.000


------------------------ aborting loop because EDIFF is reached ----------------------------------------


    CHARGE:  cpu time    0.0866: real time    0.0868
    FORLOC:  cpu time    0.0016: real time    0.0016
    FORNL :  cpu time    0.0381: real time    0.0382
    STRESS:  cpu time    0.9397: real time    0.9425
    FORHAR:  cpu time    0.0108: real time    0.0109
    MIXING:  cpu time    0.0023: real time    0.0024
    OFIELD:  cpu time    0.0001: real time    0.0001

  FORCE on cell =-STRESS in cart. coord.  units (eV):
  Direction    XX          YY          ZZ          XY          YZ          ZX
  --------------------------------------------------------------------------------------
  Alpha Z     0.00182     0.00182     0.00182
  Ewald      -0.61778    -0.61778    -0.61778    -0.00000    -0.00000    -0.00000
  Hartree     1.05314     1.05314     1.05314    -0.00000    -0.00000    -0.00000
  E(xc)      -2.06480    -2.06480    -2.06480     0.00000     0.00000    -0.00000
  Local      -3.49811    -3.49811    -3.49811    -0.00000     0.00000    -0.00000
  n-local    -0.79327    -0.79339    -0.79358     0.00057     0.00006    -0.00011
  augment     0.02836     0.02836     0.02836     0.00000     0.00000     0.00000
  Kinetic     3.86733     3.91006     3.90742     0.03459     0.00204     0.00246
  Fock        0.00000     0.00000     0.00000     0.00000     0.00000     0.00000
  -------------------------------------------------------------------------------------
  Total      -1.99586    -1.99586    -1.99586    -0.00000    -0.00000     0.00000
  in kB      -2.38790    -2.38790    -2.38790    -0.00000    -0.00000     0.00000
  external pressure =       -2.39 kB  Pullay stress =        0.00 kB


 VOLUME and BASIS-vectors are now :
 -----------------------------------------------------------------------------
  energy-cutoff  :      600.00
  volume of cell :     1339.13
      direct lattice vectors                 reciprocal lattice vectors
    11.022353692  0.000000000  0.000000000     0.090724724  0.000000000  0.000000000
     0.000000000 11.022353692  0.000000000     0.000000000  0.090724724  0.000000000
     0.000000000  0.000000000 11.022353692     0.000000000  0.000000000  0.090724724

  length of vectors
    11.022353692 11.022353692 11.022353692     0.090724724  0.090724724  0.090724724


 FORCES acting on ions
    electron-ion (+dipol)            ewald-force                    non-local-force                 convergence-correction
 -----------------------------------------------------------------------------------------------
   0.388E-14 0.651E-15 0.234E-13   -.483E-18 0.300E-18 0.727E-18   0.000E+00 0.000E+00 0.000E+00   -.425E-15 -.509E-14 -.711E-14
 -----------------------------------------------------------------------------------------------
   0.388E-14 0.651E-15 0.234E-13   -.483E-18 0.300E-18 0.727E-18   0.000E+00 0.000E+00 0.000E+00   -.425E-15 -.509E-14 -.711E-14
 
 
 POSITION                                       TOTAL-FORCE (eV/Angst)
 -----------------------------------------------------------------------------------
      5.51118      5.51118      5.51118         0.000000      0.000000      0.000000
 -----------------------------------------------------------------------------------
    total drift:                                0.000000     -0.000000      0.000000


--------------------------------------------------------------------------------------------------------



  FREE ENERGIE OF THE ION-ELECTRON SYSTEM (eV)
  ---------------------------------------------------
  free  energy   TOTEN  =         2.08993617 eV

  energy  without entropy=        2.08993617  energy(sigma->0) =        2.08993617
 


--------------------------------------------------------------------------------------------------------


    POTLOK:  cpu time    0.0455: real time    0.0456


--------------------------------------------------------------------------------------------------------


 writing wavefunctions
     LOOP+:  cpu time    5.1776: real time    5.2904
    4ORBIT:  cpu time    0.0000: real time    0.0000
 BZINTS: Fermi energy: -4.137511;  1.000000 electrons
         Band energy:  -4.264260;  BLOECHL correction:  0.000000

 total amount of memory used by VASP MPI-rank0    77440. kBytes
=======================================================================

   base      :      30000. kBytes
   nonl-proj :      18615. kBytes
   fftplans  :       4062. kBytes
   grid      :      17597. kBytes
   one-center:          1. kBytes
   wavefun   :       7165. kBytes
 
  
  
 General timing and accounting informations for this job:
 ========================================================
  
                  Total CPU time used (sec):       10.052
                            User time (sec):        8.495
                          System time (sec):        1.558
                         Elapsed time (sec):        9.891
  
                   Maximum memory used (kb):      116584.
                   Average memory used (kb):           0.
  
                          Minor page faults:        29766
                          Major page faults:           14
                 Voluntary context switches:          765
